54
 energy: -95.304036936793 gnorm: 0.000370848235 xtb: 6.5.1 (fef0646)
C            7.48081670557522       -0.52567703079013        2.52637841311311
C            6.49989627004195       -0.29584522468876        1.42070969870757
C            6.49219396955265        0.89077237839967        0.69814140043065
C            5.57616261006818        1.09998492892969       -0.31585685473119
C            4.63427301584534        0.12177667222933       -0.61345895521377
N            3.75156578759454        0.33798657103641       -1.69241239088188
N            2.51462172742188       -0.00050666650753       -1.88559722572654
C            1.63429060224653       -0.44461077448774       -1.06813383896667
C            1.57557741032346       -0.58297179271313        0.36815402681995
O            0.58475938759420       -0.98037351956637        0.94050247968895
S            0.09055568711345       -0.98037919410258       -1.89588237901626
O           -0.02944265257170       -2.39688094317676       -1.66231081092920
O            0.16022739149935       -0.55377445383656       -3.26586867699940
C           -1.22400089415787       -0.02406098364089       -1.11681628211797
C           -1.17882907019882        1.31373492574118       -1.46853610651337
C           -2.11437339958641        2.19662870675562       -0.96929631985579
C           -3.12190923902409        1.73561412857979       -0.12725081852365
C           -4.17205241269176        2.70974026493460        0.35196640472455
C           -4.85676284132106        2.28896759477376        1.64975289658650
S           -6.35442505442988        1.26871273411031        1.30083036686975
S           -6.18584018201585        1.31399056070132       -0.75918644019310
C           -5.24914848205218        2.87154148205102       -0.72565673787843
C           -3.16020340685263        0.39042854634891        0.20566106445581
C           -2.19890366232162       -0.50644251191034       -0.25587815163118
C           -2.23883514096825       -1.94509750735381        0.17001838312218
C           -3.21499897281014       -2.78126125414347       -0.67041214531231
S           -4.97804007016044       -2.39960685987501       -0.39273124865994
C           -2.51561167607140       -2.10303071342885        1.65472391780230
O           -2.69826917650519       -1.22235479475027        2.45008880417722
O           -2.50488134195000       -3.39184408046999        2.00488981958325
C            4.64348920678515       -1.08030721844168        0.08934717836266
C            5.56874844931011       -1.27820683723470        1.09393567249307
H            8.23756372898192        0.25381070837105        2.54638181637960
H            6.96651915873571       -0.53188894860327        3.48711247537846
H            7.97076639210838       -1.49019633841759        2.40774773658584
H            7.21346045281261        1.66101813612041        0.92755155443642
H            5.58455473820226        2.02301671932867       -0.87659581031353
H            4.15860266519519        0.77783512719466       -2.51199408983274
H            2.45480729476410       -0.22649562049424        0.93983747094344
H           -0.40701332194958        1.63726032472875       -2.14944135561656
H           -2.06843685109492        3.24257608699940       -1.23630906834413
H           -3.69433157126335        3.68382981914881        0.50903006241240
H           -4.19390733849119        1.71228496014174        2.29155452990981
H           -5.22335560734698        3.15846261762613        2.19524428843293
H           -5.93212636740881        3.68860640593032       -0.48957334833434
H           -4.82570114664145        3.01255937219863       -1.71737506108931
H           -3.93349600690600        0.01285515869870        0.85342874100878
H           -1.25095791708249       -2.38717351126490        0.00058790410420
H           -3.11538227840416       -3.83152740609034       -0.40112616790825
H           -2.99047967180741       -2.65842309259580       -1.72868730236529
H           -5.00304618250744       -1.22722204672609       -1.02305535128980
H           -2.67599002140732       -3.48244625503425        2.95551894836162
H            3.94288249626233       -1.86046863239361       -0.16812646048802
H            5.57441680997507       -2.21491571838046        1.63072134383305
