      -----------------------------------------------------------      
     |                   =====================                   |     
     |                           x T B                           |     
     |                   =====================                   |     
     |                         S. Grimme                         |     
     |          Mulliken Center for Theoretical Chemistry        |     
     |                    University of Bonn                     |     
      -----------------------------------------------------------      

   * xtb version 6.5.1 (fef0646) compiled by 'conda@b96dff2e9fd6' on 2023-01-04

   xtb is free software: you can redistribute it and/or modify it under
   the terms of the GNU Lesser General Public License as published by
   the Free Software Foundation, either version 3 of the License, or
   (at your option) any later version.
   
   xtb is distributed in the hope that it will be useful,
   but WITHOUT ANY WARRANTY; without even the implied warranty of
   MERCHANTABILITY or FITNESS FOR A PARTICULAR PURPOSE.  See the
   GNU Lesser General Public License for more details.
   
   Cite this work as:
   * C. Bannwarth, E. Caldeweyher, S. Ehlert, A. Hansen, P. Pracht,
     J. Seibert, S. Spicher, S. Grimme, WIREs Comput. Mol. Sci., 2020, 11,
     e01493. DOI: 10.1002/wcms.1493
   
   for GFN2-xTB:
   * C. Bannwarth, S. Ehlert and S. Grimme., J. Chem. Theory Comput., 2019,
     15, 1652-1671. DOI: 10.1021/acs.jctc.8b01176
   for GFN1-xTB:
   * S. Grimme, C. Bannwarth, P. Shushkov, J. Chem. Theory Comput., 2017,
     13, 1989-2009. DOI: 10.1021/acs.jctc.7b00118
   for GFN0-xTB:
   * P. Pracht, E. Caldeweyher, S. Ehlert, S. Grimme, ChemRxiv, 2019, preprint.
     DOI: 10.26434/chemrxiv.8326202.v1
   for GFN-FF:
   * S. Spicher and S. Grimme, Angew. Chem. Int. Ed., 2020, 59, 15665-15673.
     DOI: 10.1002/anie.202004239
   
   for ALPB and GBSA implicit solvation:
   * S. Ehlert, M. Stahn, S. Spicher, S. Grimme, J. Chem. Theory Comput.,
     2021, 17, 4250-4261. DOI: 10.1021/acs.jctc.1c00471
   
   for DFT-D4:
   * E. Caldeweyher, C. Bannwarth and S. Grimme, J. Chem. Phys., 2017,
     147, 034112. DOI: 10.1063/1.4993215
   * E. Caldeweyher, S. Ehlert, A. Hansen, H. Neugebauer, S. Spicher,
     C. Bannwarth and S. Grimme, J. Chem. Phys., 2019, 150, 154122.
     DOI: 10.1063/1.5090222
   * E. Caldeweyher, J.-M. Mewes, S. Ehlert and S. Grimme, Phys. Chem. Chem. Phys.
     2020, 22, 8499-8512. DOI: 10.1039/D0CP00502A
   
   for sTDA-xTB:
   * S. Grimme and C. Bannwarth, J. Chem. Phys., 2016, 145, 054103.
     DOI: 10.1063/1.4959605
   
   in the mass-spec context:
   * V. Asgeirsson, C. Bauer and S. Grimme, Chem. Sci., 2017, 8, 4879.
     DOI: 10.1039/c7sc00601b
   * J. Koopman and S. Grimme, ACS Omega 2019, 4, 12, 15120-15133.
     DOI: 10.1021/acsomega.9b02011
   
   for metadynamics refer to:
   * S. Grimme, J. Chem. Theory Comput., 2019, 155, 2847-2862
     DOI: 10.1021/acs.jctc.9b00143
   
   for SPH calculations refer to:
   * S. Spicher and S. Grimme, J. Chem. Theory Comput., 2021, 17, 1701-1714
     DOI: 10.1021/acs.jctc.0c01306
   
   with help from (in alphabetical order)
   P. Atkinson, C. Bannwarth, F. Bohle, G. Brandenburg, E. Caldeweyher
   M. Checinski, S. Dohm, S. Ehlert, S. Ehrlich, I. Gerasimov, C. Hölzer
   A. Katbashev, J. Koopman, C. Lavigne, S. Lehtola, F. März, M. Müller,
   F. Musil, H. Neugebauer, J. Pisarek, C. Plett, P. Pracht, F. Pultar,
   J. Seibert, P. Shushkov, S. Spicher, M. Stahn, M. Steiner, T. Strunk,
   J. Stückrath, T. Rose, and J. Unsleber
   
 * started run on 2024/05/30 at 17:33:41.277     

           -------------------------------------------------
          |                Calculation Setup                |
           -------------------------------------------------

          program call               : /home/student7/miniconda3/envs/ga-formed/bin/xtb xtb.xyz --input xcontrol --chrg 0 --uhf 0 --acc 1.0 --gfn 2 --opt tight
          hostname                   : lcmdlc3.epfl.ch
          coordinate file            : xtb.xyz
          omp threads                :                     1

########################################################################
[WARNING] Please study the warnings concerning your input carefully
-2- userdata_read: could not find 'xcontrol'
-1- set_rdcontrol: could not find 'xcontrol'
########################################################################

           -------------------------------------------------
          |                 G F N 2 - x T B                 |
           -------------------------------------------------

        Reference                      10.1021/acs.jctc.8b01176
      * Hamiltonian:
        H0-scaling (s, p, d)           1.850000    2.230000    2.230000
        zeta-weighting                 0.500000
      * Dispersion:
        s8                             2.700000
        a1                             0.520000
        a2                             5.000000
        s9                             5.000000
      * Repulsion:
        kExp                           1.500000    1.000000
        rExp                           1.000000
      * Coulomb:
        alpha                          2.000000
        third order                    shell-resolved
        anisotropic                    true
        a3                             3.000000
        a5                             4.000000
        cn-shift                       1.200000
        cn-exp                         4.000000
        max-rad                        5.000000


          ...................................................
          :                      SETUP                      :
          :.................................................:
          :  # basis functions                 174          :
          :  # atomic orbitals                 170          :
          :  # shells                           90          :
          :  # electrons                       170          :
          :  max. iterations                   250          :
          :  Hamiltonian                  GFN2-xTB          :
          :  restarted?                      false          :
          :  GBSA solvation                  false          :
          :  PC potential                    false          :
          :  electronic temp.          300.0000000     K    :
          :  accuracy                    1.0000000          :
          :  -> integral cutoff          0.2500000E+02      :
          :  -> integral neglect         0.1000000E-07      :
          :  -> SCF convergence          0.1000000E-05 Eh   :
          :  -> wf. convergence          0.1000000E-03 e    :
          :  Broyden damping             0.4000000          :
          ...................................................

 iter      E             dE          RMSdq      gap      omega  full diag
   1    -96.1684934 -0.961685E+02  0.552E+00    2.01       0.0  T
   2    -96.2849542 -0.116461E+00  0.319E+00    1.24       1.0  T
   3    -96.2689485  0.160056E-01  0.143E+00    0.65       1.0  T
   4    -96.3021006 -0.331521E-01  0.538E-01    0.52       1.0  T
   5    -96.3079689 -0.586829E-02  0.265E-01    0.45       1.0  T
   6    -96.3088368 -0.867939E-03  0.131E-01    0.58       1.0  T
   7    -96.3092666 -0.429723E-03  0.559E-02    0.56       1.0  T
   8    -96.3093034 -0.368619E-04  0.327E-02    0.57       1.0  T
   9    -96.3093139 -0.105024E-04  0.126E-02    0.57       1.1  T
  10    -96.3093173 -0.336179E-05  0.565E-03    0.57       2.4  T
  11    -96.3093177 -0.365213E-06  0.286E-03    0.57       4.8  T
  12    -96.3093178 -0.145576E-06  0.107E-03    0.57      12.7  T
  13    -96.3093178 -0.186193E-07  0.472E-04    0.57      28.8  T
  14    -96.3093178 -0.283370E-08  0.185E-04    0.57      73.5  T

   *** convergence criteria satisfied after 14 iterations ***

         #    Occupation            Energy/Eh            Energy/eV
      -------------------------------------------------------------
         1        2.0000           -0.7986776             -21.7331
       ...           ...                  ...                  ...
        79        2.0000           -0.4292910             -11.6816
        80        2.0000           -0.4135932             -11.2544
        81        2.0000           -0.4123244             -11.2199
        82        2.0000           -0.4111329             -11.1875
        83        2.0000           -0.3724672             -10.1353
        84        2.0000           -0.3704497             -10.0805
        85        2.0000           -0.3491261              -9.5002 (HOMO)
        86        0.0000           -0.3280397              -8.9264 (LUMO)
        87                         -0.3111693              -8.4673
        88                         -0.2778546              -7.5608
        89                         -0.2662000              -7.2437
        90                         -0.2570961              -6.9959
       ...                                ...                  ...
       170                          1.0991433              29.9092
      -------------------------------------------------------------
                  HL-Gap            0.0210863 Eh            0.5738 eV
             Fermi-level           -0.3385829 Eh           -9.2133 eV

 SCC (total)                   0 d,  0 h,  0 min,  1.910 sec
 SCC setup                      ...        0 min,  0.001 sec (  0.049%)
 Dispersion                     ...        0 min,  0.002 sec (  0.080%)
 classical contributions        ...        0 min,  0.016 sec (  0.859%)
 integral evaluation            ...        0 min,  0.619 sec ( 32.415%)
 iterations                     ...        0 min,  0.796 sec ( 41.665%)
 molecular gradient             ...        0 min,  0.475 sec ( 24.884%)
 printout                       ...        0 min,  0.001 sec (  0.045%)

         :::::::::::::::::::::::::::::::::::::::::::::::::::::
         ::                     SUMMARY                     ::
         :::::::::::::::::::::::::::::::::::::::::::::::::::::
         :: total energy             -95.250850399777 Eh    ::
         :: gradient norm              0.133772134087 Eh/a0 ::
         :: HOMO-LUMO gap              0.573787802612 eV    ::
         ::.................................................::
         :: SCC energy               -96.309317829023 Eh    ::
         :: -> isotropic ES            0.146816668095 Eh    ::
         :: -> anisotropic ES         -0.005145272503 Eh    ::
         :: -> anisotropic XC          0.051166988455 Eh    ::
         :: -> dispersion             -0.072978194002 Eh    ::
         :: repulsion energy           1.057714847160 Eh    ::
         :: add. restraining           0.000000000000 Eh    ::
         :: total charge              -0.000000000001 e     ::
         :::::::::::::::::::::::::::::::::::::::::::::::::::::

      ----------------------------------------------------------- 
     |                   =====================                   |
     |                        A N C O P T                        |
     |                   =====================                   |
     |               Approximate Normal Coordinate               |
     |                Rational Function Optimizer                |
      ----------------------------------------------------------- 

          ...................................................
          :                      SETUP                      :
          :.................................................:
          :   optimization level             tight          :
          :   max. optcycles                   270          :
          :   ANC micro-cycles                  20          :
          :   degrees of freedom               156          :
          :.................................................:
          :   RF solver                   davidson          :
          :   write xtbopt.log                true          :
          :   linear?                        false          :
          :   energy convergence         0.1000000E-05 Eh   :
          :   grad. convergence          0.8000000E-03 Eh/α :
          :   maximium RF displ.         1.0000000          :
          :   Hlow (freq-cutoff)         0.1000000E-01      :
          :   Hmax (freq-cutoff)         5.0000000          :
          :   S6 in model hess.         20.0000000          :
          ...................................................

generating ANC from model Hessian ...
Using Lindh-Hessian (1995)
 Shifting diagonal of input Hessian by    9.8594915465969168E-003
 Lowest  eigenvalues of input Hessian
    0.000000    0.000000    0.000000    0.000000    0.000000    0.000000
    0.010000    0.010016    0.010326    0.010462    0.010628    0.010808
    0.011123    0.011403    0.011526    0.011916    0.012471    0.012894
 Highest eigenvalues
    1.945177    2.004582    2.123929    2.241333    2.409632    3.324732


........................................................................
.............................. CYCLE    1 ..............................
........................................................................
   1    -96.3093178 -0.963093E+02  0.622E-05    0.57       0.0  T
   2    -96.3093178 -0.233200E-10  0.407E-05    0.57     334.1  T
   3    -96.3093178 -0.114966E-10  0.276E-05    0.57     493.6  T
     SCC iter.                  ...        0 min,  0.155 sec
     gradient                   ...        0 min,  0.503 sec
 * total energy  :   -95.2508504 Eh     change       -0.3980460E-09 Eh
   gradient norm :     0.1337718 Eh/α   predicted     0.0000000E+00 (-100.00%)
   displ. norm   :     0.3664658 α      lambda       -0.2305181E-01
   maximum displ.:     0.1420911 α      in ANC's #41, #13, #49, ...

........................................................................
.............................. CYCLE    2 ..............................
........................................................................
   1    -96.3790704 -0.963791E+02  0.233E-01    0.88       0.0  T
   2    -96.3792010 -0.130582E-03  0.130E-01    0.87       1.0  T
   3    -96.3790563  0.144714E-03  0.786E-02    0.89       1.0  T
   4    -96.3792566 -0.200273E-03  0.201E-02    0.86       1.0  T
   5    -96.3792660 -0.938216E-05  0.846E-03    0.87       1.6  T
   6    -96.3792671 -0.113554E-05  0.309E-03    0.87       4.4  T
   7    -96.3792673 -0.221742E-06  0.131E-03    0.87      10.4  T
   8    -96.3792673 -0.318434E-07  0.697E-04    0.87      19.5  T
   9    -96.3792674 -0.379349E-08  0.253E-04    0.87      53.9  T
     SCC iter.                  ...        0 min,  0.517 sec
     gradient                   ...        0 min,  0.493 sec
 * total energy  :   -95.2672375 Eh     change       -0.1638714E-01 Eh
   gradient norm :     0.0585608 Eh/α   predicted    -0.1310609E-01 ( -20.02%)
   displ. norm   :     0.4116310 α      lambda       -0.9918055E-02
   maximum displ.:     0.1485352 α      in ANC's #13, #8, #41, ...

........................................................................
.............................. CYCLE    3 ..............................
........................................................................
   1    -96.4195063 -0.964195E+02  0.196E-01    1.05       0.0  T
   2    -96.4195852 -0.789134E-04  0.104E-01    1.08       1.0  T
   3    -96.4195460  0.391397E-04  0.459E-02    1.09       1.0  T
   4    -96.4196022 -0.561133E-04  0.164E-02    1.08       1.0  T
   5    -96.4196075 -0.529586E-05  0.785E-03    1.09       1.7  T
   6    -96.4196084 -0.893676E-06  0.261E-03    1.09       5.2  T
   7    -96.4196086 -0.242373E-06  0.962E-04    1.09      14.1  T
   8    -96.4196086 -0.168802E-07  0.534E-04    1.09      25.5  T
     SCC iter.                  ...        0 min,  0.422 sec
     gradient                   ...        0 min,  0.563 sec
 * total energy  :   -95.2736156 Eh     change       -0.6378040E-02 Eh
   gradient norm :     0.0226710 Eh/α   predicted    -0.5799286E-02 (  -9.07%)
   displ. norm   :     0.4109750 α      lambda       -0.3262010E-02
   maximum displ.:     0.2135271 α      in ANC's #8, #13, #18, ...

........................................................................
.............................. CYCLE    4 ..............................
........................................................................
   1    -96.4234538 -0.964235E+02  0.169E-01    1.11       0.0  T
   2    -96.4235064 -0.526036E-04  0.879E-02    1.16       1.0  T
   3    -96.4234340  0.724198E-04  0.463E-02    1.15       1.0  T
   4    -96.4235335 -0.995487E-04  0.150E-02    1.17       1.0  T
   5    -96.4235361 -0.258656E-05  0.518E-03    1.16       2.6  T
   6    -96.4235363 -0.182334E-06  0.193E-03    1.16       7.0  T
   7    -96.4235364 -0.109106E-06  0.681E-04    1.16      20.0  T
   8    -96.4235364 -0.363912E-08  0.391E-04    1.16      34.8  T
     SCC iter.                  ...        0 min,  0.748 sec
     gradient                   ...        0 min,  0.284 sec
 * total energy  :   -95.2761407 Eh     change       -0.2525136E-02 Eh
   gradient norm :     0.0187264 Eh/α   predicted    -0.1906507E-02 ( -24.50%)
   displ. norm   :     0.5782597 α      lambda       -0.3064895E-02
   maximum displ.:     0.3282306 α      in ANC's #8, #13, #29, ...

........................................................................
.............................. CYCLE    5 ..............................
........................................................................
   1    -96.4196175 -0.964196E+02  0.235E-01    1.16       0.0  T
   2    -96.4197310 -0.113449E-03  0.123E-01    1.23       1.0  T
   3    -96.4195405  0.190479E-03  0.825E-02    1.20       1.0  T
   4    -96.4198457 -0.305195E-03  0.193E-02    1.23       1.0  T
   5    -96.4198477 -0.197641E-05  0.704E-03    1.23       1.9  T
   6    -96.4198480 -0.362878E-06  0.278E-03    1.23       4.9  T
   7    -96.4198483 -0.243383E-06  0.843E-04    1.23      16.1  T
   8    -96.4198483 -0.375475E-08  0.451E-04    1.23      30.2  T
     SCC iter.                  ...        0 min,  0.253 sec
     gradient                   ...        0 min,  0.286 sec
 * total energy  :   -95.2785223 Eh     change       -0.2381553E-02 Eh
   gradient norm :     0.0238378 Eh/α   predicted    -0.2044883E-02 ( -14.14%)
   displ. norm   :     0.5881381 α      lambda       -0.2628081E-02
   maximum displ.:     0.3439133 α      in ANC's #8, #13, #4, ...

........................................................................
.............................. CYCLE    6 ..............................
........................................................................
   1    -96.4161606 -0.964162E+02  0.239E-01    1.26       0.0  T
   2    -96.4162873 -0.126664E-03  0.127E-01    1.31       1.0  T
   3    -96.4161602  0.127051E-03  0.939E-02    1.27       1.0  T
   4    -96.4165269 -0.366719E-03  0.192E-02    1.30       1.0  T
   5    -96.4165278 -0.862353E-06  0.782E-03    1.30       1.7  T
   6    -96.4165283 -0.478056E-06  0.327E-03    1.30       4.2  T
   7    -96.4165286 -0.310677E-06  0.970E-04    1.30      14.0  T
   8    -96.4165286 -0.685236E-08  0.569E-04    1.30      23.9  T
     SCC iter.                  ...        0 min,  0.332 sec
     gradient                   ...        0 min,  0.424 sec
 * total energy  :   -95.2806409 Eh     change       -0.2118640E-02 Eh
   gradient norm :     0.0272719 Eh/α   predicted    -0.1768588E-02 ( -16.52%)
   displ. norm   :     0.6070961 α      lambda       -0.2976520E-02
   maximum displ.:     0.3598023 α      in ANC's #8, #13, #4, ...

........................................................................
.............................. CYCLE    7 ..............................
........................................................................
   1    -96.4154305 -0.964154E+02  0.250E-01    1.29       0.0  T
   2    -96.4155689 -0.138452E-03  0.139E-01    1.35       1.0  T
   3    -96.4156184 -0.494697E-04  0.105E-01    1.31       1.0  T
   4    -96.4160081 -0.389749E-03  0.207E-02    1.34       1.0  T
   5    -96.4160086 -0.415996E-06  0.821E-03    1.34       1.7  T
   6    -96.4160090 -0.403229E-06  0.346E-03    1.34       3.9  T
   7    -96.4160093 -0.365318E-06  0.100E-03    1.34      13.6  T
   8    -96.4160093 -0.608519E-08  0.543E-04    1.34      25.1  T
   9    -96.4160093 -0.560897E-08  0.206E-04    1.34      66.1  T
     SCC iter.                  ...        0 min,  0.415 sec
     gradient                   ...        0 min,  0.421 sec
 * total energy  :   -95.2830672 Eh     change       -0.2426285E-02 Eh
   gradient norm :     0.0270828 Eh/α   predicted    -0.2036784E-02 ( -16.05%)
   displ. norm   :     0.5946412 α      lambda       -0.3313216E-02
   maximum displ.:     0.3225000 α      in ANC's #8, #4, #13, ...

........................................................................
.............................. CYCLE    8 ..............................
........................................................................
   1    -96.4245294 -0.964245E+02  0.273E-01    1.46       0.0  T
   2    -96.4247123 -0.182849E-03  0.151E-01    1.48       1.0  T
   3    -96.4250233 -0.311028E-03  0.114E-01    1.42       1.0  T
   4    -96.4254282 -0.404876E-03  0.241E-02    1.44       1.0  T
   5    -96.4254287 -0.527104E-06  0.981E-03    1.44       1.4  T
   6    -96.4254295 -0.832179E-06  0.426E-03    1.44       3.2  T
   7    -96.4254299 -0.385143E-06  0.134E-03    1.44      10.2  T
   8    -96.4254300 -0.294975E-07  0.711E-04    1.44      19.1  T
   9    -96.4254300 -0.107633E-07  0.279E-04    1.44      48.7  T
     SCC iter.                  ...        0 min,  0.767 sec
     gradient                   ...        0 min,  0.792 sec
 * total energy  :   -95.2854339 Eh     change       -0.2366698E-02 Eh
   gradient norm :     0.0239054 Eh/α   predicted    -0.2242383E-02 (  -5.25%)
   displ. norm   :     0.6497190 α      lambda       -0.2783285E-02
   maximum displ.:     0.3466041 α      in ANC's #8, #4, #2, ...

........................................................................
.............................. CYCLE    9 ..............................
........................................................................
   1    -96.4237792 -0.964238E+02  0.270E-01    1.36       0.0  T
   2    -96.4238998 -0.120651E-03  0.145E-01    1.44       1.0  T
   3    -96.4240065 -0.106627E-03  0.116E-01    1.39       1.0  T
   4    -96.4244721 -0.465620E-03  0.213E-02    1.41       1.0  T
   5    -96.4244721 -0.512084E-07  0.843E-03    1.41       1.6  T
   6    -96.4244725 -0.395781E-06  0.366E-03    1.41       3.7  T
   7    -96.4244729 -0.405079E-06  0.103E-03    1.41      13.2  T
   8    -96.4244729 -0.381003E-08  0.481E-04    1.41      28.3  T
   9    -96.4244729 -0.376809E-08  0.190E-04    1.41      71.5  T
     SCC iter.                  ...        0 min,  0.245 sec
     gradient                   ...        0 min,  0.345 sec
 * total energy  :   -95.2871885 Eh     change       -0.1754608E-02 Eh
   gradient norm :     0.0303434 Eh/α   predicted    -0.1979105E-02 (  12.79%)
   displ. norm   :     0.4017416 α      lambda       -0.1892135E-02
   maximum displ.:     0.1579444 α      in ANC's #4, #2, #9, ...

........................................................................
.............................. CYCLE   10 ..............................
........................................................................
   1    -96.4359063 -0.964359E+02  0.133E-01    1.47       0.0  T
   2    -96.4359473 -0.410259E-04  0.711E-02    1.47       1.0  T
   3    -96.4359332  0.141201E-04  0.624E-02    1.44       1.0  T
   4    -96.4360477 -0.114483E-03  0.101E-02    1.45       1.3  T
   5    -96.4360480 -0.351235E-06  0.393E-03    1.45       3.5  T
   6    -96.4360481 -0.871430E-07  0.208E-03    1.45       6.5  T
   7    -96.4360482 -0.622803E-07  0.678E-04    1.45      20.1  T
   8    -96.4360482 -0.530018E-08  0.376E-04    1.45      36.2  T
     SCC iter.                  ...        0 min,  0.317 sec
     gradient                   ...        0 min,  0.408 sec
 * total energy  :   -95.2884948 Eh     change       -0.1306307E-02 Eh
   gradient norm :     0.0184682 Eh/α   predicted    -0.1098764E-02 ( -15.89%)
   displ. norm   :     0.5137983 α      lambda       -0.1549480E-02
   maximum displ.:     0.2174883 α      in ANC's #4, #2, #3, ...

........................................................................
.............................. CYCLE   11 ..............................
........................................................................
   1    -96.4356079 -0.964356E+02  0.159E-01    1.52       0.0  T
   2    -96.4356405 -0.326207E-04  0.844E-02    1.52       1.0  T
   3    -96.4355762  0.642880E-04  0.688E-02    1.49       1.0  T
   4    -96.4357558 -0.179515E-03  0.127E-02    1.50       1.1  T
   5    -96.4357559 -0.128189E-06  0.490E-03    1.50       2.8  T
   6    -96.4357561 -0.235076E-06  0.200E-03    1.50       6.8  T
   7    -96.4357562 -0.859521E-07  0.828E-04    1.50      16.4  T
   8    -96.4357562 -0.481479E-08  0.488E-04    1.50      27.9  T
     SCC iter.                  ...        0 min,  0.492 sec
     gradient                   ...        0 min,  0.475 sec
 * total energy  :   -95.2895648 Eh     change       -0.1069984E-02 Eh
   gradient norm :     0.0116593 Eh/α   predicted    -0.9792632E-03 (  -8.48%)
   displ. norm   :     0.4821916 α      lambda       -0.1473888E-02
   maximum displ.:     0.2041169 α      in ANC's #2, #9, #4, ...

........................................................................
.............................. CYCLE   12 ..............................
........................................................................
   1    -96.4408693 -0.964409E+02  0.154E-01    1.45       0.0  T
   2    -96.4409036 -0.343584E-04  0.799E-02    1.47       1.0  T
   3    -96.4408110  0.926201E-04  0.562E-02    1.45       1.0  T
   4    -96.4409459 -0.134930E-03  0.135E-02    1.46       1.0  T
   5    -96.4409472 -0.132455E-05  0.513E-03    1.46       2.7  T
   6    -96.4409477 -0.463958E-06  0.189E-03    1.46       7.2  T
   7    -96.4409478 -0.979657E-07  0.687E-04    1.46      19.8  T
   8    -96.4409478 -0.179540E-08  0.415E-04    1.46      32.8  T
     SCC iter.                  ...        0 min,  0.450 sec
     gradient                   ...        0 min,  0.514 sec
 * total energy  :   -95.2904739 Eh     change       -0.9091170E-03 Eh
   gradient norm :     0.0175011 Eh/α   predicted    -0.9082985E-03 (  -0.09%)
   displ. norm   :     0.3976318 α      lambda       -0.1062609E-02
   maximum displ.:     0.2031722 α      in ANC's #2, #3, #4, ...

........................................................................
.............................. CYCLE   13 ..............................
........................................................................
   1    -96.4395424 -0.964395E+02  0.868E-02    1.49       0.0  T
   2    -96.4395492 -0.681694E-05  0.485E-02    1.49       1.0  T
   3    -96.4395396  0.963623E-05  0.181E-02    1.49       1.0  T
   4    -96.4395499 -0.103525E-04  0.713E-03    1.49       1.9  T
   5    -96.4395515 -0.160316E-05  0.243E-03    1.49       5.6  T
   6    -96.4395516 -0.795866E-07  0.976E-04    1.49      13.9  T
   7    -96.4395516 -0.175682E-07  0.495E-04    1.49      27.5  T
     SCC iter.                  ...        0 min,  0.321 sec
     gradient                   ...        0 min,  0.506 sec
 * total energy  :   -95.2911453 Eh     change       -0.6713966E-03 Eh
   gradient norm :     0.0147750 Eh/α   predicted    -0.6153155E-03 (  -8.35%)
   displ. norm   :     0.4472816 α      lambda       -0.9985720E-03
   maximum displ.:     0.2212657 α      in ANC's #2, #4, #3, ...

........................................................................
.............................. CYCLE   14 ..............................
........................................................................
   1    -96.4337349 -0.964337E+02  0.951E-02    1.43       0.0  T
   2    -96.4337458 -0.108447E-04  0.576E-02    1.45       1.0  T
   3    -96.4337195  0.262918E-04  0.431E-02    1.44       1.0  T
   4    -96.4337874 -0.679437E-04  0.642E-03    1.45       2.1  T
   5    -96.4337876 -0.185785E-06  0.238E-03    1.45       5.7  T
   6    -96.4337877 -0.550193E-07  0.105E-03    1.45      12.9  T
   7    -96.4337877 -0.319587E-07  0.389E-04    1.45      35.0  T
   8    -96.4337877 -0.802501E-09  0.217E-04    1.45      62.7  T
     SCC iter.                  ...        0 min,  0.508 sec
     gradient                   ...        0 min,  0.589 sec
 * total energy  :   -95.2918078 Eh     change       -0.6624539E-03 Eh
   gradient norm :     0.0170697 Eh/α   predicted    -0.5991771E-03 (  -9.55%)
   displ. norm   :     0.4028044 α      lambda       -0.1010725E-02
   maximum displ.:     0.2162368 α      in ANC's #2, #3, #13, ...

........................................................................
.............................. CYCLE   15 ..............................
........................................................................
   1    -96.4366042 -0.964366E+02  0.105E-01    1.45       0.0  T
   2    -96.4366130 -0.880152E-05  0.536E-02    1.44       1.0  T
   3    -96.4365928  0.201861E-04  0.253E-02    1.44       1.0  T
   4    -96.4366176 -0.247383E-04  0.945E-03    1.44       1.4  T
   5    -96.4366185 -0.951767E-06  0.318E-03    1.44       4.3  T
   6    -96.4366188 -0.243687E-06  0.133E-03    1.44      10.2  T
   7    -96.4366188 -0.205504E-07  0.728E-04    1.44      18.7  T
   8    -96.4366188 -0.240640E-08  0.363E-04    1.44      37.5  T
     SCC iter.                  ...        0 min,  0.737 sec
     gradient                   ...        0 min,  0.219 sec
 * total energy  :   -95.2924124 Eh     change       -0.6046902E-03 Eh
   gradient norm :     0.0111183 Eh/α   predicted    -0.5873598E-03 (  -2.87%)
   displ. norm   :     0.4685594 α      lambda       -0.8435941E-03
   maximum displ.:     0.2705092 α      in ANC's #2, #3, #4, ...

........................................................................
.............................. CYCLE   16 ..............................
........................................................................
   1    -96.4341896 -0.964342E+02  0.998E-02    1.39       0.0  T
   2    -96.4342044 -0.148255E-04  0.549E-02    1.41       1.0  T
   3    -96.4341629  0.414662E-04  0.360E-02    1.40       1.0  T
   4    -96.4342172 -0.542472E-04  0.904E-03    1.41       1.5  T
   5    -96.4342180 -0.857699E-06  0.353E-03    1.41       3.9  T
   6    -96.4342182 -0.199945E-06  0.142E-03    1.41       9.6  T
   7    -96.4342182 -0.276121E-07  0.709E-04    1.41      19.2  T
   8    -96.4342182 -0.932417E-09  0.409E-04    1.41      33.3  T
     SCC iter.                  ...        0 min,  0.210 sec
     gradient                   ...        0 min,  0.224 sec
 * total energy  :   -95.2928953 Eh     change       -0.4828578E-03 Eh
   gradient norm :     0.0135291 Eh/α   predicted    -0.5144016E-03 (   6.53%)
   displ. norm   :     0.3587535 α      lambda       -0.6772857E-03
   maximum displ.:     0.2179015 α      in ANC's #2, #3, #1, ...

........................................................................
.............................. CYCLE   17 ..............................
........................................................................
   1    -96.4390708 -0.964391E+02  0.880E-02    1.43       0.0  T
   2    -96.4390806 -0.982758E-05  0.463E-02    1.43       1.0  T
   3    -96.4390509  0.297323E-04  0.308E-02    1.42       1.0  T
   4    -96.4390907 -0.397777E-04  0.747E-03    1.42       1.8  T
   5    -96.4390911 -0.463418E-06  0.304E-03    1.42       4.5  T
   6    -96.4390913 -0.204206E-06  0.106E-03    1.42      12.8  T
   7    -96.4390914 -0.272600E-07  0.417E-04    1.42      32.7  T
   8    -96.4390914  0.655120E-11  0.230E-04    1.42      59.1  T
     SCC iter.                  ...        0 min,  0.228 sec
     gradient                   ...        0 min,  0.226 sec
 * total energy  :   -95.2933543 Eh     change       -0.4589525E-03 Eh
   gradient norm :     0.0097377 Eh/α   predicted    -0.3822304E-03 ( -16.72%)
   displ. norm   :     0.4395398 α      lambda       -0.5427453E-03
   maximum displ.:     0.2756280 α      in ANC's #2, #3, #1, ...

........................................................................
.............................. CYCLE   18 ..............................
........................................................................
   1    -96.4417975 -0.964418E+02  0.795E-02    1.41       0.0  T
   2    -96.4418034 -0.598431E-05  0.462E-02    1.42       1.0  T
   3    -96.4417709  0.325152E-04  0.363E-02    1.41       1.0  T
   4    -96.4418218 -0.509190E-04  0.459E-03    1.42       3.0  T
   5    -96.4418219 -0.665296E-07  0.231E-03    1.42       5.9  T
   6    -96.4418220 -0.779123E-07  0.125E-03    1.42      10.9  T
   7    -96.4418220 -0.297146E-07  0.563E-04    1.42      24.2  T
   8    -96.4418220 -0.754696E-09  0.357E-04    1.42      38.1  T
     SCC iter.                  ...        0 min,  0.223 sec
     gradient                   ...        0 min,  0.221 sec
 * total energy  :   -95.2937361 Eh     change       -0.3818158E-03 Eh
   gradient norm :     0.0082417 Eh/α   predicted    -0.3238052E-03 ( -15.19%)
   displ. norm   :     0.4589975 α      lambda       -0.4111717E-03
   maximum displ.:     0.2955106 α      in ANC's #2, #1, #3, ...

........................................................................
.............................. CYCLE   19 ..............................
........................................................................
   1    -96.4431908 -0.964432E+02  0.835E-02    1.42       0.0  T
   2    -96.4432007 -0.991508E-05  0.472E-02    1.43       1.0  T
   3    -96.4431697  0.310028E-04  0.351E-02    1.42       1.0  T
   4    -96.4432196 -0.498730E-04  0.652E-03    1.43       2.1  T
   5    -96.4432199 -0.289210E-06  0.245E-03    1.43       5.5  T
   6    -96.4432199 -0.915107E-07  0.111E-03    1.43      12.3  T
   7    -96.4432200 -0.498064E-07  0.371E-04    1.43      36.7  T
   8    -96.4432200 -0.909537E-09  0.226E-04    1.43      60.1  T
     SCC iter.                  ...        0 min,  0.226 sec
     gradient                   ...        0 min,  0.383 sec
 * total energy  :   -95.2940352 Eh     change       -0.2990866E-03 Eh
   gradient norm :     0.0079413 Eh/α   predicted    -0.2488998E-03 ( -16.78%)
   displ. norm   :     0.4324111 α      lambda       -0.3406128E-03
   maximum displ.:     0.2890436 α      in ANC's #2, #1, #3, ...

........................................................................
.............................. CYCLE   20 ..............................
........................................................................
   1    -96.4432536 -0.964433E+02  0.767E-02    1.42       0.0  T
   2    -96.4432609 -0.727430E-05  0.451E-02    1.44       1.0  T
   3    -96.4432414  0.194518E-04  0.343E-02    1.42       1.0  T
   4    -96.4432839 -0.425088E-04  0.552E-03    1.43       2.5  T
   5    -96.4432841 -0.157654E-06  0.228E-03    1.43       6.0  T
   6    -96.4432842 -0.652911E-07  0.100E-03    1.43      13.6  T
   7    -96.4432842 -0.364332E-07  0.386E-04    1.43      35.3  T
   8    -96.4432842 -0.279869E-09  0.228E-04    1.43      59.8  T
     SCC iter.                  ...        0 min,  0.227 sec
     gradient                   ...        0 min,  0.213 sec
 * total energy  :   -95.2942745 Eh     change       -0.2393449E-03 Eh
   gradient norm :     0.0053373 Eh/α   predicted    -0.2021531E-03 ( -15.54%)
   displ. norm   :     0.4134246 α      lambda       -0.2369397E-03
   maximum displ.:     0.2727163 α      in ANC's #2, #1, #3, ...
 * RMSD in coord.:     0.9707179 α      energy gain  -0.4342411E-01 Eh

generating ANC from model Hessian ...
Using Lindh-Hessian (1995)
 Shifting diagonal of input Hessian by    9.9039373217532662E-003
 Lowest  eigenvalues of input Hessian
    0.000000    0.000000    0.000000    0.000000    0.000000    0.000000
    0.010000    0.010060    0.010314    0.010540    0.010667    0.011007
    0.011283    0.011556    0.011729    0.012213    0.012554    0.013026
 Highest eigenvalues
    2.073879    2.181601    2.314389    2.377496    2.521808    3.310539


........................................................................
.............................. CYCLE   21 ..............................
........................................................................
   1    -96.4410636 -0.964411E+02  0.701E-02    1.41       0.0  T
   2    -96.4410721 -0.852703E-05  0.412E-02    1.42       1.0  T
   3    -96.4410549  0.172769E-04  0.305E-02    1.41       1.0  T
   4    -96.4410900 -0.351556E-04  0.568E-03    1.42       2.4  T
   5    -96.4410903 -0.268463E-06  0.204E-03    1.42       6.7  T
   6    -96.4410903 -0.428239E-07  0.849E-04    1.42      16.0  T
   7    -96.4410903 -0.185663E-07  0.384E-04    1.42      35.4  T
     SCC iter.                  ...        0 min,  0.171 sec
     gradient                   ...        0 min,  0.242 sec
 * total energy  :   -95.2944351 Eh     change       -0.1605437E-03 Eh
   gradient norm :     0.0060908 Eh/α   predicted     0.0000000E+00 (-100.00%)
   displ. norm   :     0.0803522 α      lambda       -0.8825005E-04
   maximum displ.:     0.0521693 α      in ANC's #1, #9, #13, ...

........................................................................
.............................. CYCLE   22 ..............................
........................................................................
   1    -96.4429932 -0.964430E+02  0.267E-02    1.42       0.0  T
   2    -96.4429938 -0.603979E-06  0.152E-02    1.41       1.0  T
   3    -96.4429918  0.201691E-05  0.736E-03    1.41       1.8  T
   4    -96.4429940 -0.229037E-05  0.192E-03    1.41       7.1  T
   5    -96.4429941 -0.869477E-07  0.672E-04    1.41      20.2  T
   6    -96.4429941 -0.995625E-08  0.302E-04    1.41      45.1  T
     SCC iter.                  ...        0 min,  0.150 sec
     gradient                   ...        0 min,  0.440 sec
 * total energy  :   -95.2945391 Eh     change       -0.1040365E-03 Eh
   gradient norm :     0.0026343 Eh/α   predicted    -0.6348725E-04 ( -38.98%)
   displ. norm   :     0.2314366 α      lambda       -0.2489884E-03
   maximum displ.:     0.1462483 α      in ANC's #1, #9, #4, ...

........................................................................
.............................. CYCLE   23 ..............................
........................................................................
   1    -96.4454823 -0.964455E+02  0.683E-02    1.40       0.0  T
   2    -96.4454855 -0.316290E-05  0.390E-02    1.39       1.0  T
   3    -96.4454711  0.143565E-04  0.190E-02    1.39       1.0  T
   4    -96.4454876 -0.164750E-04  0.428E-03    1.39       3.2  T
   5    -96.4454880 -0.381588E-06  0.174E-03    1.39       7.8  T
   6    -96.4454881 -0.703446E-07  0.724E-04    1.39      18.8  T
   7    -96.4454881 -0.836765E-08  0.324E-04    1.39      42.0  T
     SCC iter.                  ...        0 min,  0.315 sec
     gradient                   ...        0 min,  0.450 sec
 * total energy  :   -95.2947110 Eh     change       -0.1719432E-03 Eh
   gradient norm :     0.0051344 Eh/α   predicted    -0.1311776E-03 ( -23.71%)
   displ. norm   :     0.2612932 α      lambda       -0.1872587E-03
   maximum displ.:     0.1680200 α      in ANC's #1, #9, #4, ...

........................................................................
.............................. CYCLE   24 ..............................
........................................................................
   1    -96.4450783 -0.964451E+02  0.770E-02    1.36       0.0  T
   2    -96.4450809 -0.258465E-05  0.443E-02    1.36       1.0  T
   3    -96.4450752  0.569036E-05  0.122E-02    1.36       1.1  T
   4    -96.4450815 -0.631082E-05  0.417E-03    1.36       3.3  T
   5    -96.4450819 -0.450587E-06  0.172E-03    1.36       7.9  T
   6    -96.4450820 -0.667420E-07  0.687E-04    1.36      19.8  T
   7    -96.4450820 -0.974755E-08  0.299E-04    1.36      45.5  T
     SCC iter.                  ...        0 min,  0.401 sec
     gradient                   ...        0 min,  0.516 sec
 * total energy  :   -95.2948511 Eh     change       -0.1400233E-03 Eh
   gradient norm :     0.0065667 Eh/α   predicted    -0.1000222E-03 ( -28.57%)
   displ. norm   :     0.2671877 α      lambda       -0.1717389E-03
   maximum displ.:     0.1765029 α      in ANC's #1, #9, #4, ...

........................................................................
.............................. CYCLE   25 ..............................
........................................................................
   1    -96.4437418 -0.964437E+02  0.700E-02    1.33       0.0  T
   2    -96.4437442 -0.247852E-05  0.402E-02    1.33       1.0  T
   3    -96.4437420  0.225307E-05  0.875E-03    1.33       1.6  T
   4    -96.4437449 -0.291591E-05  0.288E-03    1.33       4.7  T
   5    -96.4437450 -0.132588E-06  0.995E-04    1.33      13.7  T
   6    -96.4437451 -0.170643E-07  0.450E-04    1.33      30.2  T
     SCC iter.                  ...        0 min,  0.379 sec
     gradient                   ...        0 min,  0.567 sec
 * total energy  :   -95.2949960 Eh     change       -0.1449875E-03 Eh
   gradient norm :     0.0055977 Eh/α   predicted    -0.9199996E-04 ( -36.55%)
   displ. norm   :     0.2854324 α      lambda       -0.1933123E-03
   maximum displ.:     0.1978947 α      in ANC's #1, #9, #4, ...

........................................................................
.............................. CYCLE   26 ..............................
........................................................................
   1    -96.4424891 -0.964425E+02  0.691E-02    1.30       0.0  T
   2    -96.4424923 -0.326664E-05  0.394E-02    1.31       1.0  T
   3    -96.4424809  0.114374E-04  0.174E-02    1.30       1.0  T
   4    -96.4424941 -0.132354E-04  0.394E-03    1.31       3.5  T
   5    -96.4424943 -0.205613E-06  0.190E-03    1.31       7.2  T
   6    -96.4424945 -0.130755E-06  0.584E-04    1.31      23.3  T
   7    -96.4424945 -0.525476E-08  0.301E-04    1.31      45.2  T
     SCC iter.                  ...        0 min,  0.588 sec
     gradient                   ...        0 min,  0.569 sec
 * total energy  :   -95.2951534 Eh     change       -0.1573597E-03 Eh
   gradient norm :     0.0038301 Eh/α   predicted    -0.1045330E-03 ( -33.57%)
   displ. norm   :     0.2719021 α      lambda       -0.1620009E-03
   maximum displ.:     0.1984349 α      in ANC's #1, #3, #4, ...

........................................................................
.............................. CYCLE   27 ..............................
........................................................................
   1    -96.4420348 -0.964420E+02  0.664E-02    1.28       0.0  T
   2    -96.4420382 -0.340124E-05  0.384E-02    1.29       1.0  T
   3    -96.4420175  0.206824E-04  0.235E-02    1.28       1.0  T
   4    -96.4420423 -0.248480E-04  0.382E-03    1.29       3.6  T
   5    -96.4420425 -0.150615E-06  0.176E-03    1.29       7.8  T
   6    -96.4420426 -0.757901E-07  0.724E-04    1.29      18.8  T
   7    -96.4420426 -0.100532E-07  0.365E-04    1.29      37.3  T
     SCC iter.                  ...        0 min,  0.577 sec
     gradient                   ...        0 min,  0.573 sec
 * total energy  :   -95.2952869 Eh     change       -0.1335207E-03 Eh
   gradient norm :     0.0042384 Eh/α   predicted    -0.8698957E-04 ( -34.85%)
   displ. norm   :     0.2553741 α      lambda       -0.1519648E-03
   maximum displ.:     0.1941750 α      in ANC's #1, #3, #4, ...

........................................................................
.............................. CYCLE   28 ..............................
........................................................................
   1    -96.4424165 -0.964424E+02  0.599E-02    1.26       0.0  T
   2    -96.4424198 -0.328977E-05  0.353E-02    1.27       1.0  T
   3    -96.4423993  0.204366E-04  0.242E-02    1.27       1.0  T
   4    -96.4424255 -0.261110E-04  0.339E-03    1.27       4.0  T
   5    -96.4424255 -0.801236E-07  0.148E-03    1.27       9.2  T
   6    -96.4424256 -0.422146E-07  0.642E-04    1.27      21.2  T
   7    -96.4424256 -0.972193E-08  0.264E-04    1.27      51.6  T
     SCC iter.                  ...        0 min,  0.549 sec
     gradient                   ...        0 min,  0.625 sec
 * total energy  :   -95.2954174 Eh     change       -0.1304702E-03 Eh
   gradient norm :     0.0054840 Eh/α   predicted    -0.8093969E-04 ( -37.96%)
   displ. norm   :     0.3007496 α      lambda       -0.1912099E-03
   maximum displ.:     0.2307209 α      in ANC's #1, #3, #2, ...

........................................................................
.............................. CYCLE   29 ..............................
........................................................................
   1    -96.4432472 -0.964432E+02  0.794E-02    1.25       0.0  T
   2    -96.4432525 -0.526258E-05  0.476E-02    1.25       1.0  T
   3    -96.4432149  0.375937E-04  0.329E-02    1.24       1.0  T
   4    -96.4432634 -0.485042E-04  0.413E-03    1.25       3.3  T
   5    -96.4432636 -0.174453E-06  0.172E-03    1.25       7.9  T
   6    -96.4432636 -0.181252E-07  0.930E-04    1.25      14.6  T
   7    -96.4432636 -0.228334E-07  0.392E-04    1.25      34.8  T
     SCC iter.                  ...        0 min,  0.331 sec
     gradient                   ...        0 min,  0.448 sec
 * total energy  :   -95.2955868 Eh     change       -0.1694461E-03 Eh
   gradient norm :     0.0056993 Eh/α   predicted    -0.1042536E-03 ( -38.47%)
   displ. norm   :     0.3982194 α      lambda       -0.2607682E-03
   maximum displ.:     0.3063142 α      in ANC's #1, #3, #2, ...

........................................................................
.............................. CYCLE   30 ..............................
........................................................................
   1    -96.4436792 -0.964437E+02  0.105E-01    1.21       0.0  T
   2    -96.4436896 -0.103877E-04  0.630E-02    1.22       1.0  T
   3    -96.4436241  0.654931E-04  0.434E-02    1.20       1.0  T
   4    -96.4437088 -0.847169E-04  0.570E-03    1.21       2.4  T
   5    -96.4437092 -0.360285E-06  0.219E-03    1.21       6.2  T
   6    -96.4437092 -0.236522E-07  0.107E-03    1.21      12.7  T
   7    -96.4437093 -0.293777E-07  0.454E-04    1.21      30.0  T
   8    -96.4437093 -0.114370E-08  0.264E-04    1.21      51.5  T
     SCC iter.                  ...        0 min,  0.395 sec
     gradient                   ...        0 min,  0.600 sec
 * total energy  :   -95.2958238 Eh     change       -0.2369527E-03 Eh
   gradient norm :     0.0064882 Eh/α   predicted    -0.1510658E-03 ( -36.25%)
   displ. norm   :     0.5157995 α      lambda       -0.3475939E-03
   maximum displ.:     0.3965434 α      in ANC's #1, #3, #2, ...

........................................................................
.............................. CYCLE   31 ..............................
........................................................................
   1    -96.4436361 -0.964436E+02  0.132E-01    1.17       0.0  T
   2    -96.4436524 -0.162944E-04  0.785E-02    1.17       1.0  T
   3    -96.4435522  0.100176E-03  0.541E-02    1.16       1.0  T
   4    -96.4436824 -0.130200E-03  0.765E-03    1.17       1.8  T
   5    -96.4436831 -0.676293E-06  0.281E-03    1.17       4.8  T
   6    -96.4436831 -0.263020E-07  0.131E-03    1.17      10.4  T
   7    -96.4436832 -0.483913E-07  0.585E-04    1.17      23.3  T
   8    -96.4436832 -0.211355E-08  0.335E-04    1.17      40.6  T
     SCC iter.                  ...        0 min,  0.696 sec
     gradient                   ...        0 min,  0.647 sec
 * total energy  :   -95.2961372 Eh     change       -0.3133788E-03 Eh
   gradient norm :     0.0067573 Eh/α   predicted    -0.2200407E-03 ( -29.78%)
   displ. norm   :     0.5966984 α      lambda       -0.4038648E-03
   maximum displ.:     0.4564998 α      in ANC's #1, #3, #2, ...

........................................................................
.............................. CYCLE   32 ..............................
........................................................................
   1    -96.4429115 -0.964429E+02  0.142E-01    1.12       0.0  T
   2    -96.4429317 -0.202453E-04  0.838E-02    1.13       1.0  T
   3    -96.4428203  0.111410E-03  0.574E-02    1.11       1.0  T
   4    -96.4429657 -0.145421E-03  0.907E-03    1.12       1.5  T
   5    -96.4429667 -0.980423E-06  0.325E-03    1.12       4.2  T
   6    -96.4429667 -0.409292E-07  0.140E-03    1.12       9.7  T
   7    -96.4429668 -0.560149E-07  0.651E-04    1.12      20.9  T
   8    -96.4429668 -0.278223E-08  0.369E-04    1.12      36.9  T
     SCC iter.                  ...        0 min,  0.356 sec
     gradient                   ...        0 min,  0.367 sec
 * total energy  :   -95.2964961 Eh     change       -0.3589767E-03 Eh
   gradient norm :     0.0079295 Eh/α   predicted    -0.2738333E-03 ( -23.72%)
   displ. norm   :     0.6397137 α      lambda       -0.4391222E-03
   maximum displ.:     0.4861233 α      in ANC's #1, #3, #2, ...

........................................................................
.............................. CYCLE   33 ..............................
........................................................................
   1    -96.4423062 -0.964423E+02  0.141E-01    1.08       0.0  T
   2    -96.4423241 -0.178581E-04  0.818E-02    1.08       1.0  T
   3    -96.4422198  0.104319E-03  0.546E-02    1.07       1.0  T
   4    -96.4423528 -0.133073E-03  0.946E-03    1.07       1.4  T
   5    -96.4423538 -0.101510E-05  0.339E-03    1.07       4.0  T
   6    -96.4423539 -0.645815E-07  0.140E-03    1.07       9.7  T
   7    -96.4423540 -0.610648E-07  0.653E-04    1.07      20.9  T
   8    -96.4423540 -0.252784E-08  0.365E-04    1.07      37.2  T
     SCC iter.                  ...        0 min,  0.387 sec
     gradient                   ...        0 min,  0.419 sec
 * total energy  :   -95.2968816 Eh     change       -0.3854479E-03 Eh
   gradient norm :     0.0089174 Eh/α   predicted    -0.3094193E-03 ( -19.72%)
   displ. norm   :     0.6819513 α      lambda       -0.4778213E-03
   maximum displ.:     0.5156745 α      in ANC's #1, #3, #2, ...

........................................................................
.............................. CYCLE   34 ..............................
........................................................................
   1    -96.4415413 -0.964415E+02  0.145E-01    1.03       0.0  T
   2    -96.4415608 -0.194389E-04  0.832E-02    1.03       1.0  T
   3    -96.4414582  0.102623E-03  0.533E-02    1.02       1.0  T
   4    -96.4415862 -0.128081E-03  0.100E-02    1.03       1.4  T
   5    -96.4415875 -0.128185E-05  0.361E-03    1.03       3.8  T
   6    -96.4415876 -0.114269E-06  0.139E-03    1.03       9.8  T
   7    -96.4415877 -0.592773E-07  0.657E-04    1.03      20.7  T
   8    -96.4415877 -0.243180E-08  0.368E-04    1.03      37.0  T
     SCC iter.                  ...        0 min,  0.352 sec
     gradient                   ...        0 min,  0.354 sec
 * total energy  :   -95.2972989 Eh     change       -0.4172821E-03 Eh
   gradient norm :     0.0095145 Eh/α   predicted    -0.3500189E-03 ( -16.12%)
   displ. norm   :     0.6627882 α      lambda       -0.5945721E-03
   maximum displ.:     0.4942726 α      in ANC's #1, #3, #2, ...

........................................................................
.............................. CYCLE   35 ..............................
........................................................................
   1    -96.4481363 -0.964481E+02  0.126E-01    1.04       0.0  T
   2    -96.4481456 -0.938358E-05  0.691E-02    1.03       1.0  T
   3    -96.4481022  0.434200E-04  0.351E-02    1.02       1.0  T
   4    -96.4481539 -0.516564E-04  0.917E-03    1.02       1.5  T
   5    -96.4481546 -0.744791E-06  0.349E-03    1.02       3.9  T
   6    -96.4481551 -0.442341E-06  0.997E-04    1.02      13.7  T
   7    -96.4481551 -0.102859E-07  0.545E-04    1.02      25.0  T
     SCC iter.                  ...        0 min,  0.248 sec
     gradient                   ...        0 min,  0.216 sec
 * total energy  :   -95.2976189 Eh     change       -0.3200616E-03 Eh
   gradient norm :     0.0163679 Eh/α   predicted    -0.4278806E-03 (  33.69%)
   displ. norm   :     0.6503215 α      lambda       -0.7339510E-03
   maximum displ.:     0.4841337 α      in ANC's #1, #3, #2, ...

........................................................................
.............................. CYCLE   36 ..............................
........................................................................
   1    -96.4424641 -0.964425E+02  0.151E-01    0.94       0.0  T
   2    -96.4425043 -0.401255E-04  0.893E-02    0.95       1.0  T
   3    -96.4424004  0.103848E-03  0.544E-02    0.94       1.0  T
   4    -96.4425305 -0.130081E-03  0.119E-02    0.95       1.1  T
   5    -96.4425339 -0.340632E-05  0.403E-03    0.95       3.4  T
   6    -96.4425340 -0.140251E-06  0.152E-03    0.95       9.0  T
   7    -96.4425341 -0.509292E-07  0.724E-04    0.95      18.8  T
   8    -96.4425341 -0.495658E-08  0.410E-04    0.95      33.2  T
     SCC iter.                  ...        0 min,  0.290 sec
     gradient                   ...        0 min,  0.312 sec
 * total energy  :   -95.2980365 Eh     change       -0.4175860E-03 Eh
   gradient norm :     0.0086989 Eh/α   predicted    -0.5221771E-03 (  25.05%)
   displ. norm   :     0.5718515 α      lambda       -0.3458836E-03
   maximum displ.:     0.4349458 α      in ANC's #1, #3, #2, ...

........................................................................
.............................. CYCLE   37 ..............................
........................................................................
   1    -96.4377265 -0.964377E+02  0.108E-01    0.92       0.0  T
   2    -96.4377408 -0.143024E-04  0.608E-02    0.92       1.0  T
   3    -96.4376875  0.532587E-04  0.420E-02    0.92       1.0  T
   4    -96.4377605 -0.730002E-04  0.806E-03    0.92       1.7  T
   5    -96.4377613 -0.727076E-06  0.307E-03    0.92       4.4  T
   6    -96.4377613 -0.683419E-07  0.111E-03    0.92      12.3  T
   7    -96.4377614 -0.419908E-07  0.524E-04    0.92      26.0  T
   8    -96.4377614 -0.203700E-08  0.300E-04    0.92      45.3  T
     SCC iter.                  ...        0 min,  0.248 sec
     gradient                   ...        0 min,  0.292 sec
 * total energy  :   -95.2982831 Eh     change       -0.2465432E-03 Eh
   gradient norm :     0.0099990 Eh/α   predicted    -0.2294989E-03 (  -6.91%)
   displ. norm   :     0.3864806 α      lambda       -0.5927344E-03
   maximum displ.:     0.2655644 α      in ANC's #1, #2, #5, ...

........................................................................
.............................. CYCLE   38 ..............................
........................................................................
   1    -96.4484524 -0.964485E+02  0.835E-02    0.93       0.0  T
   2    -96.4484576 -0.521523E-05  0.463E-02    0.93       1.0  T
   3    -96.4484310  0.265729E-04  0.290E-02    0.93       1.0  T
   4    -96.4484647 -0.336451E-04  0.589E-03    0.93       2.3  T
   5    -96.4484650 -0.338149E-06  0.296E-03    0.93       4.6  T
   6    -96.4484652 -0.214782E-06  0.664E-04    0.93      20.5  T
   7    -96.4484652 -0.738791E-08  0.397E-04    0.93      34.3  T
     SCC iter.                  ...        0 min,  0.179 sec
     gradient                   ...        0 min,  0.297 sec
 * total energy  :   -95.2985604 Eh     change       -0.2773441E-03 Eh
   gradient norm :     0.0096066 Eh/α   predicted    -0.3406397E-03 (  22.82%)
   displ. norm   :     0.6385030 α      lambda       -0.4876995E-03
   maximum displ.:     0.4789613 α      in ANC's #1, #3, #2, ...

........................................................................
.............................. CYCLE   39 ..............................
........................................................................
   1    -96.4437394 -0.964437E+02  0.127E-01    0.92       0.0  T
   2    -96.4437487 -0.931538E-05  0.721E-02    0.92       1.0  T
   3    -96.4436987  0.499554E-04  0.356E-02    0.91       1.0  T
   4    -96.4437568 -0.580842E-04  0.866E-03    0.91       1.6  T
   5    -96.4437579 -0.111227E-05  0.307E-03    0.91       4.4  T
   6    -96.4437581 -0.147175E-06  0.121E-03    0.91      11.3  T
   7    -96.4437581 -0.518654E-07  0.549E-04    0.91      24.8  T
   8    -96.4437581 -0.195752E-08  0.302E-04    0.91      45.1  T
     SCC iter.                  ...        0 min,  0.290 sec
     gradient                   ...        0 min,  1.923 sec
 * total energy  :   -95.2988913 Eh     change       -0.3308471E-03 Eh
   gradient norm :     0.0099880 Eh/α   predicted    -0.3432649E-03 (   3.75%)
   displ. norm   :     0.5832684 α      lambda       -0.4058772E-03
   maximum displ.:     0.4287213 α      in ANC's #1, #2, #3, ...

........................................................................
.............................. CYCLE   40 ..............................
........................................................................
   1    -96.4419708 -0.964420E+02  0.113E-01    0.87       0.0  T
   2    -96.4420008 -0.299635E-04  0.655E-02    0.87       1.0  T
   3    -96.4419582  0.425487E-04  0.351E-02    0.87       1.0  T
   4    -96.4420105 -0.522948E-04  0.105E-02    0.88       1.3  T
   5    -96.4420138 -0.324669E-05  0.364E-03    0.87       3.7  T
   6    -96.4420139 -0.104672E-06  0.120E-03    0.87      11.4  T
   7    -96.4420139 -0.382448E-07  0.549E-04    0.87      24.8  T
   8    -96.4420139 -0.453356E-08  0.307E-04    0.87      44.3  T
     SCC iter.                  ...        0 min,  0.258 sec
     gradient                   ...        0 min,  0.388 sec
 * total energy  :   -95.2991109 Eh     change       -0.2196253E-03 Eh
   gradient norm :     0.0130517 Eh/α   predicted    -0.2719790E-03 (  23.84%)
   displ. norm   :     0.4148405 α      lambda       -0.3350166E-03
   maximum displ.:     0.3004103 α      in ANC's #1, #2, #3, ...

........................................................................
.............................. CYCLE   41 ..............................
........................................................................
   1    -96.4436014 -0.964436E+02  0.783E-02    0.89       0.0  T
   2    -96.4436051 -0.375894E-05  0.431E-02    0.88       1.0  T
   3    -96.4436017  0.342988E-05  0.122E-02    0.88       1.1  T
   4    -96.4436058 -0.415720E-05  0.531E-03    0.88       2.6  T
   5    -96.4436063 -0.464838E-06  0.220E-03    0.88       6.2  T
   6    -96.4436065 -0.172620E-06  0.616E-04    0.88      22.1  T
   7    -96.4436065 -0.951873E-08  0.309E-04    0.88      44.0  T
     SCC iter.                  ...        0 min,  0.272 sec
     gradient                   ...        0 min,  0.537 sec
 * total energy  :   -95.2993930 Eh     change       -0.2821145E-03 Eh
   gradient norm :     0.0075703 Eh/α   predicted    -0.1963369E-03 ( -30.41%)
   displ. norm   :     0.4752345 α      lambda       -0.5217481E-03
   maximum displ.:     0.2870169 α      in ANC's #1, #2, #7, ...

........................................................................
.............................. CYCLE   42 ..............................
........................................................................
   1    -96.4558325 -0.964558E+02  0.106E-01    0.90       0.0  T
   2    -96.4558439 -0.113759E-04  0.571E-02    0.90       1.0  T
   3    -96.4558384  0.550204E-05  0.165E-02    0.90       1.0  T
   4    -96.4558448 -0.644151E-05  0.873E-03    0.90       1.6  T
   5    -96.4558468 -0.199944E-05  0.308E-03    0.90       4.4  T
   6    -96.4558470 -0.163713E-06  0.102E-03    0.90      13.4  T
   7    -96.4558470 -0.330329E-07  0.376E-04    0.90      36.2  T
   8    -96.4558470 -0.208743E-09  0.195E-04    0.90      69.8  T
     SCC iter.                  ...        0 min,  0.405 sec
     gradient                   ...        0 min,  0.415 sec
 * total energy  :   -95.2996610 Eh     change       -0.2679728E-03 Eh
   gradient norm :     0.0078467 Eh/α   predicted    -0.3197928E-03 (  19.34%)
   displ. norm   :     0.7710162 α      lambda       -0.4451252E-03
   maximum displ.:     0.5636252 α      in ANC's #1, #2, #3, ...
 * RMSD in coord.:     1.2540562 α      energy gain  -0.5386463E-02 Eh

generating ANC from model Hessian ...
Using Lindh-Hessian (1995)
 Shifting diagonal of input Hessian by    9.9143329818122596E-003
 Lowest  eigenvalues of input Hessian
    0.000000    0.000000    0.000000    0.000000    0.000000    0.000000
    0.010000    0.010103    0.010280    0.010625    0.010650    0.010999
    0.011317    0.011447    0.011637    0.012178    0.012724    0.013058
 Highest eigenvalues
    2.064949    2.195812    2.366767    2.391587    2.518230    3.306684


........................................................................
.............................. CYCLE   43 ..............................
........................................................................
   1    -96.4459447 -0.964459E+02  0.148E-01    0.87       0.0  T
   2    -96.4459569 -0.122233E-04  0.824E-02    0.87       1.0  T
   3    -96.4459104  0.464364E-04  0.352E-02    0.87       1.0  T
   4    -96.4459649 -0.544587E-04  0.969E-03    0.87       1.4  T
   5    -96.4459660 -0.106559E-05  0.353E-03    0.87       3.8  T
   6    -96.4459663 -0.312110E-06  0.116E-03    0.87      11.7  T
   7    -96.4459663 -0.484202E-07  0.574E-04    0.87      23.7  T
   8    -96.4459663 -0.167215E-08  0.322E-04    0.87      42.3  T
     SCC iter.                  ...        0 min,  0.403 sec
     gradient                   ...        0 min,  0.357 sec
 * total energy  :   -95.2999701 Eh     change       -0.3090872E-03 Eh
   gradient norm :     0.0081008 Eh/α   predicted     0.0000000E+00 (-100.00%)
   displ. norm   :     0.0695546 α      lambda       -0.1594779E-03
   maximum displ.:     0.0317363 α      in ANC's #3, #2, #5, ...

........................................................................
.............................. CYCLE   44 ..............................
........................................................................
   1    -96.4493158 -0.964493E+02  0.274E-02    0.87       0.0  T
   2    -96.4493171 -0.136960E-05  0.158E-02    0.87       1.0  T
   3    -96.4493167  0.423294E-06  0.451E-03    0.87       3.0  T
   4    -96.4493174 -0.640518E-06  0.172E-03    0.87       7.9  T
   5    -96.4493174 -0.528695E-07  0.774E-04    0.87      17.6  T
   6    -96.4493174 -0.183801E-07  0.337E-04    0.87      40.3  T
     SCC iter.                  ...        0 min,  0.245 sec
     gradient                   ...        0 min,  0.320 sec
 * total energy  :   -95.3000826 Eh     change       -0.1125795E-03 Eh
   gradient norm :     0.0031841 Eh/α   predicted    -0.8012509E-04 ( -28.83%)
   displ. norm   :     0.1300655 α      lambda       -0.1335181E-03
   maximum displ.:     0.0671466 α      in ANC's #3, #2, #5, ...

........................................................................
.............................. CYCLE   45 ..............................
........................................................................
   1    -96.4523318 -0.964523E+02  0.395E-02    0.87       0.0  T
   2    -96.4523337 -0.185889E-05  0.219E-02    0.87       1.0  T
   3    -96.4523330  0.648554E-06  0.589E-03    0.87       2.3  T
   4    -96.4523340 -0.942181E-06  0.249E-03    0.87       5.5  T
   5    -96.4523341 -0.122452E-06  0.853E-04    0.87      15.9  T
   6    -96.4523341 -0.244508E-07  0.332E-04    0.87      40.9  T
     SCC iter.                  ...        0 min,  0.191 sec
     gradient                   ...        0 min,  0.372 sec
 * total energy  :   -95.3001620 Eh     change       -0.7938186E-04 Eh
   gradient norm :     0.0035609 Eh/α   predicted    -0.6791645E-04 ( -14.44%)
   displ. norm   :     0.1398862 α      lambda       -0.8896805E-04
   maximum displ.:     0.0747024 α      in ANC's #3, #2, #5, ...

........................................................................
.............................. CYCLE   46 ..............................
........................................................................
   1    -96.4527860 -0.964528E+02  0.452E-02    0.87       0.0  T
   2    -96.4527874 -0.135561E-05  0.248E-02    0.87       1.0  T
   3    -96.4527870  0.373059E-06  0.562E-03    0.87       2.4  T
   4    -96.4527874 -0.427146E-06  0.320E-03    0.87       4.3  T
   5    -96.4527878 -0.367658E-06  0.874E-04    0.87      15.6  T
   6    -96.4527878 -0.157788E-07  0.401E-04    0.87      33.9  T
     SCC iter.                  ...        0 min,  0.232 sec
     gradient                   ...        0 min,  0.377 sec
 * total energy  :   -95.3002293 Eh     change       -0.6725044E-04 Eh
   gradient norm :     0.0044797 Eh/α   predicted    -0.4535768E-04 ( -32.55%)
   displ. norm   :     0.2150645 α      lambda       -0.1163472E-03
   maximum displ.:     0.1172498 α      in ANC's #3, #2, #5, ...

........................................................................
.............................. CYCLE   47 ..............................
........................................................................
   1    -96.4517378 -0.964517E+02  0.624E-02    0.87       0.0  T
   2    -96.4517403 -0.250375E-05  0.339E-02    0.87       1.0  T
   3    -96.4517392  0.113175E-05  0.805E-03    0.87       1.7  T
   4    -96.4517404 -0.121191E-05  0.445E-03    0.87       3.1  T
   5    -96.4517411 -0.695562E-06  0.124E-03    0.87      11.0  T
   6    -96.4517411 -0.406281E-07  0.497E-04    0.87      27.4  T
   7    -96.4517411 -0.484536E-08  0.245E-04    0.87      55.5  T
     SCC iter.                  ...        0 min,  0.239 sec
     gradient                   ...        0 min,  0.295 sec
 * total energy  :   -95.3003273 Eh     change       -0.9807090E-04 Eh
   gradient norm :     0.0042946 Eh/α   predicted    -0.6087555E-04 ( -37.93%)
   displ. norm   :     0.3216226 α      lambda       -0.1586721E-03
   maximum displ.:     0.1754074 α      in ANC's #3, #2, #5, ...

........................................................................
.............................. CYCLE   48 ..............................
........................................................................
   1    -96.4496449 -0.964496E+02  0.896E-02    0.88       0.0  T
   2    -96.4496502 -0.536231E-05  0.486E-02    0.88       1.0  T
   3    -96.4496473  0.294903E-05  0.120E-02    0.88       1.1  T
   4    -96.4496504 -0.311630E-05  0.644E-03    0.88       2.1  T
   5    -96.4496518 -0.141996E-05  0.192E-03    0.88       7.1  T
   6    -96.4496519 -0.947141E-07  0.700E-04    0.88      19.5  T
   7    -96.4496519 -0.119275E-07  0.325E-04    0.88      41.9  T
     SCC iter.                  ...        0 min,  0.290 sec
     gradient                   ...        0 min,  0.287 sec
 * total energy  :   -95.3004549 Eh     change       -0.1275259E-03 Eh
   gradient norm :     0.0040848 Eh/α   predicted    -0.8754359E-04 ( -31.35%)
   displ. norm   :     0.3559224 α      lambda       -0.1515480E-03
   maximum displ.:     0.1942741 α      in ANC's #3, #2, #5, ...

........................................................................
.............................. CYCLE   49 ..............................
........................................................................
   1    -96.4480701 -0.964481E+02  0.945E-02    0.88       0.0  T
   2    -96.4480759 -0.585900E-05  0.512E-02    0.88       1.0  T
   3    -96.4480735  0.242945E-05  0.123E-02    0.88       1.1  T
   4    -96.4480758 -0.234075E-05  0.683E-03    0.88       2.0  T
   5    -96.4480775 -0.164333E-05  0.209E-03    0.88       6.5  T
   6    -96.4480776 -0.116646E-06  0.708E-04    0.88      19.2  T
   7    -96.4480776 -0.127892E-07  0.329E-04    0.88      41.3  T
     SCC iter.                  ...        0 min,  0.227 sec
     gradient                   ...        0 min,  0.329 sec
 * total energy  :   -95.3005779 Eh     change       -0.1230563E-03 Eh
   gradient norm :     0.0047356 Eh/α   predicted    -0.8537471E-04 ( -30.62%)
   displ. norm   :     0.3912381 α      lambda       -0.1687789E-03
   maximum displ.:     0.2133842 α      in ANC's #3, #2, #5, ...

........................................................................
.............................. CYCLE   50 ..............................
........................................................................
   1    -96.4476880 -0.964477E+02  0.992E-02    0.88       0.0  T
   2    -96.4476944 -0.635720E-05  0.536E-02    0.88       1.0  T
   3    -96.4476920  0.237643E-05  0.129E-02    0.88       1.1  T
   4    -96.4476942 -0.218850E-05  0.720E-03    0.88       1.9  T
   5    -96.4476959 -0.176583E-05  0.227E-03    0.88       6.0  T
   6    -96.4476961 -0.148593E-06  0.715E-04    0.88      19.0  T
   7    -96.4476961 -0.138174E-07  0.333E-04    0.88      40.8  T
     SCC iter.                  ...        0 min,  0.226 sec
     gradient                   ...        0 min,  0.515 sec
 * total energy  :   -95.3007171 Eh     change       -0.1391651E-03 Eh
   gradient norm :     0.0051787 Eh/α   predicted    -0.9730883E-04 ( -30.08%)
   displ. norm   :     0.4451196 α      lambda       -0.2008381E-03
   maximum displ.:     0.2483389 α      in ANC's #2, #3, #5, ...

........................................................................
.............................. CYCLE   51 ..............................
........................................................................
   1    -96.4488246 -0.964488E+02  0.108E-01    0.88       0.0  T
   2    -96.4488318 -0.712464E-05  0.582E-02    0.88       1.0  T
   3    -96.4488304  0.135441E-05  0.132E-02    0.89       1.0  T
   4    -96.4488319 -0.145018E-05  0.702E-03    0.88       1.9  T
   5    -96.4488333 -0.144104E-05  0.247E-03    0.88       5.5  T
   6    -96.4488335 -0.225821E-06  0.719E-04    0.88      18.9  T
   7    -96.4488335 -0.139021E-07  0.347E-04    0.88      39.2  T
     SCC iter.                  ...        0 min,  0.338 sec
     gradient                   ...        0 min,  0.378 sec
 * total energy  :   -95.3008792 Eh     change       -0.1620716E-03 Eh
   gradient norm :     0.0051675 Eh/α   predicted    -0.1203152E-03 ( -25.76%)
   displ. norm   :     0.4772521 α      lambda       -0.1933697E-03
   maximum displ.:     0.2737398 α      in ANC's #2, #3, #5, ...

........................................................................
.............................. CYCLE   52 ..............................
........................................................................
   1    -96.4501349 -0.964501E+02  0.114E-01    0.88       0.0  T
   2    -96.4501421 -0.720092E-05  0.613E-02    0.88       1.0  T
   3    -96.4501410  0.108835E-05  0.134E-02    0.88       1.0  T
   4    -96.4501423 -0.129012E-05  0.693E-03    0.88       2.0  T
   5    -96.4501437 -0.141897E-05  0.209E-03    0.88       6.5  T
   6    -96.4501439 -0.187218E-06  0.685E-04    0.88      19.9  T
   7    -96.4501439 -0.118228E-07  0.349E-04    0.88      39.0  T
     SCC iter.                  ...        0 min,  0.243 sec
     gradient                   ...        0 min,  0.318 sec
 * total energy  :   -95.3010371 Eh     change       -0.1579215E-03 Eh
   gradient norm :     0.0046360 Eh/α   predicted    -0.1187111E-03 ( -24.83%)
   displ. norm   :     0.5049662 α      lambda       -0.1869054E-03
   maximum displ.:     0.2965492 α      in ANC's #2, #3, #5, ...

........................................................................
.............................. CYCLE   53 ..............................
........................................................................
   1    -96.4513816 -0.964514E+02  0.120E-01    0.87       0.0  T
   2    -96.4513892 -0.759579E-05  0.648E-02    0.87       1.0  T
   3    -96.4513804  0.878513E-05  0.188E-02    0.87       1.0  T
   4    -96.4513897 -0.930883E-05  0.915E-03    0.88       1.5  T
   5    -96.4513919 -0.219526E-05  0.217E-03    0.87       6.3  T
   6    -96.4513921 -0.171656E-06  0.666E-04    0.87      20.4  T
   7    -96.4513921 -0.126667E-07  0.326E-04    0.87      41.8  T
     SCC iter.                  ...        0 min,  0.310 sec
     gradient                   ...        0 min,  0.204 sec
 * total energy  :   -95.3011926 Eh     change       -0.1555403E-03 Eh
   gradient norm :     0.0039710 Eh/α   predicted    -0.1172823E-03 ( -24.60%)
   displ. norm   :     0.5414160 α      lambda       -0.1829107E-03
   maximum displ.:     0.3236854 α      in ANC's #2, #3, #1, ...

........................................................................
.............................. CYCLE   54 ..............................
........................................................................
   1    -96.4514858 -0.964515E+02  0.129E-01    0.86       0.0  T
   2    -96.4514949 -0.915847E-05  0.702E-02    0.86       1.0  T
   3    -96.4514675  0.273985E-04  0.282E-02    0.86       1.0  T
   4    -96.4514994 -0.318343E-04  0.935E-03    0.86       1.5  T
   5    -96.4515007 -0.136856E-05  0.223E-03    0.86       6.1  T
   6    -96.4515009 -0.167009E-06  0.733E-04    0.86      18.6  T
   7    -96.4515009 -0.175295E-07  0.351E-04    0.86      38.8  T
     SCC iter.                  ...        0 min,  0.166 sec
     gradient                   ...        0 min,  0.242 sec
 * total energy  :   -95.3013447 Eh     change       -0.1520676E-03 Eh
   gradient norm :     0.0033052 Eh/α   predicted    -0.1182675E-03 ( -22.23%)
   displ. norm   :     0.5113239 α      lambda       -0.1781617E-03
   maximum displ.:     0.3154879 α      in ANC's #2, #3, #1, ...

........................................................................
.............................. CYCLE   55 ..............................
........................................................................
   1    -96.4540134 -0.964540E+02  0.123E-01    0.85       0.0  T
   2    -96.4540210 -0.758339E-05  0.671E-02    0.85       1.0  T
   3    -96.4539897  0.312365E-04  0.294E-02    0.85       1.0  T
   4    -96.4540262 -0.364427E-04  0.838E-03    0.85       1.6  T
   5    -96.4540271 -0.915488E-06  0.199E-03    0.85       6.8  T
   6    -96.4540272 -0.125123E-06  0.739E-04    0.85      18.4  T
   7    -96.4540272 -0.188833E-07  0.340E-04    0.85      40.0  T
     SCC iter.                  ...        0 min,  0.178 sec
     gradient                   ...        0 min,  0.214 sec
 * total energy  :   -95.3014772 Eh     change       -0.1324709E-03 Eh
   gradient norm :     0.0058891 Eh/α   predicted    -0.1123755E-03 ( -15.17%)
   displ. norm   :     0.6574142 α      lambda       -0.1755877E-03
   maximum displ.:     0.3987885 α      in ANC's #2, #3, #1, ...

........................................................................
.............................. CYCLE   56 ..............................
........................................................................
   1    -96.4474115 -0.964474E+02  0.156E-01    0.82       0.0  T
   2    -96.4474258 -0.143461E-04  0.866E-02    0.82       1.0  T
   3    -96.4473593  0.665588E-04  0.421E-02    0.82       1.0  T
   4    -96.4474379 -0.786841E-04  0.104E-02    0.82       1.3  T
   5    -96.4474391 -0.111647E-05  0.286E-03    0.82       4.8  T
   6    -96.4474393 -0.257861E-06  0.979E-04    0.82      13.9  T
   7    -96.4474393 -0.264133E-07  0.508E-04    0.82      26.8  T
     SCC iter.                  ...        0 min,  0.175 sec
     gradient                   ...        0 min,  0.216 sec
 * total energy  :   -95.3015614 Eh     change       -0.8425263E-04 Eh
   gradient norm :     0.0068968 Eh/α   predicted    -0.1257396E-03 (  49.24%)
   displ. norm   :     0.2175655 α      lambda       -0.1485255E-03
   maximum displ.:     0.1357952 α      in ANC's #2, #3, #1, ...

........................................................................
.............................. CYCLE   57 ..............................
........................................................................
   1    -96.4512292 -0.964512E+02  0.588E-02    0.81       0.0  T
   2    -96.4512320 -0.276449E-05  0.331E-02    0.81       1.0  T
   3    -96.4512217  0.102823E-04  0.167E-02    0.81       1.0  T
   4    -96.4512338 -0.121275E-04  0.395E-03    0.81       3.4  T
   5    -96.4512341 -0.281548E-06  0.151E-03    0.81       9.0  T
   6    -96.4512341 -0.230805E-07  0.590E-04    0.81      23.1  T
   7    -96.4512341 -0.608628E-08  0.350E-04    0.81      38.9  T
     SCC iter.                  ...        0 min,  0.176 sec
     gradient                   ...        0 min,  0.219 sec
 * total energy  :   -95.3016644 Eh     change       -0.1029617E-03 Eh
   gradient norm :     0.0051460 Eh/α   predicted    -0.7777868E-04 ( -24.46%)
   displ. norm   :     0.4359182 α      lambda       -0.1494955E-03
   maximum displ.:     0.2766113 α      in ANC's #2, #3, #1, ...

........................................................................
.............................. CYCLE   58 ..............................
........................................................................
   1    -96.4521335 -0.964521E+02  0.108E-01    0.80       0.0  T
   2    -96.4521373 -0.380505E-05  0.611E-02    0.80       1.0  T
   3    -96.4521311  0.613070E-05  0.146E-02    0.79       1.0  T
   4    -96.4521378 -0.663968E-05  0.653E-03    0.80       2.1  T
   5    -96.4521389 -0.114536E-05  0.172E-03    0.80       7.9  T
   6    -96.4521390 -0.706873E-07  0.742E-04    0.80      18.4  T
   7    -96.4521390 -0.558951E-08  0.404E-04    0.80      33.7  T
     SCC iter.                  ...        0 min,  0.111 sec
     gradient                   ...        0 min,  0.113 sec
 * total energy  :   -95.3017731 Eh     change       -0.1086763E-03 Eh
   gradient norm :     0.0039765 Eh/α   predicted    -0.8895257E-04 ( -18.15%)
   displ. norm   :     0.4756561 α      lambda       -0.1413938E-03
   maximum displ.:     0.3014738 α      in ANC's #2, #3, #1, ...

........................................................................
.............................. CYCLE   59 ..............................
........................................................................
   1    -96.4514548 -0.964515E+02  0.119E-01    0.78       0.0  T
   2    -96.4514610 -0.623876E-05  0.674E-02    0.78       1.0  T
   3    -96.4514337  0.272732E-04  0.264E-02    0.77       1.0  T
   4    -96.4514650 -0.312815E-04  0.663E-03    0.78       2.1  T
   5    -96.4514657 -0.737827E-06  0.241E-03    0.78       5.6  T
   6    -96.4514658 -0.668665E-07  0.108E-03    0.78      12.6  T
   7    -96.4514658 -0.144420E-07  0.680E-04    0.78      20.0  T
   8    -96.4514658 -0.289073E-08  0.374E-04    0.78      36.3  T
     SCC iter.                  ...        0 min,  0.063 sec
     gradient                   ...        0 min,  0.071 sec
 * total energy  :   -95.3018796 Eh     change       -0.1065343E-03 Eh
   gradient norm :     0.0037049 Eh/α   predicted    -0.8669407E-04 ( -18.62%)
   displ. norm   :     0.3595125 α      lambda       -0.1253113E-03
   maximum displ.:     0.2142659 α      in ANC's #2, #3, #1, ...

........................................................................
[...]
          ...................................................

 iter      E             dE          RMSdq      gap      omega  full diag
   1    -96.4564670 -0.964565E+02  0.567E-05    0.67       0.0  T
   2    -96.4564670 -0.358682E-10  0.382E-05    0.67     356.0  T
   3    -96.4564670 -0.445795E-10  0.208E-05    0.67     653.0  T

   *** convergence criteria satisfied after 3 iterations ***

         #    Occupation            Energy/Eh            Energy/eV
      -------------------------------------------------------------
         1        2.0000           -0.7696144             -20.9423
       ...           ...                  ...                  ...
        79        2.0000           -0.4155637             -11.3081
        80        2.0000           -0.4095611             -11.1447
        81        2.0000           -0.4068436             -11.0708
        82        2.0000           -0.3991094             -10.8603
        83        2.0000           -0.3874452             -10.5429
        84        2.0000           -0.3591672              -9.7734
        85        2.0000           -0.3465929              -9.4313 (HOMO)
        86        0.0000           -0.3218450              -8.7578 (LUMO)
        87                         -0.2609916              -7.1019
        88                         -0.2564887              -6.9794
        89                         -0.2527217              -6.8769
        90                         -0.2496195              -6.7925
       ...                                ...                  ...
       170                          1.2253654              33.3439
      -------------------------------------------------------------
                  HL-Gap            0.0247479 Eh            0.6734 eV
             Fermi-level           -0.3342190 Eh           -9.0946 eV

 SCC (total)                   0 d,  0 h,  0 min,  0.118 sec
 SCC setup                      ...        0 min,  0.001 sec (  0.673%)
 Dispersion                     ...        0 min,  0.001 sec (  1.064%)
 classical contributions        ...        0 min,  0.000 sec (  0.281%)
 integral evaluation            ...        0 min,  0.023 sec ( 19.377%)
 iterations                     ...        0 min,  0.023 sec ( 19.619%)
 molecular gradient             ...        0 min,  0.069 sec ( 58.528%)
 printout                       ...        0 min,  0.001 sec (  0.443%)

         :::::::::::::::::::::::::::::::::::::::::::::::::::::
         ::                     SUMMARY                     ::
         :::::::::::::::::::::::::::::::::::::::::::::::::::::
         :: total energy             -95.304036936793 Eh    ::
         :: gradient norm              0.000370848235 Eh/a0 ::
         :: HOMO-LUMO gap              0.673425730221 eV    ::
         ::.................................................::
         :: SCC energy               -96.456467035600 Eh    ::
         :: -> isotropic ES            0.144795583904 Eh    ::
         :: -> anisotropic ES         -0.005781537792 Eh    ::
         :: -> anisotropic XC          0.042997371981 Eh    ::
         :: -> dispersion             -0.076481687580 Eh    ::
         :: repulsion energy           1.151170241613 Eh    ::
         :: add. restraining           0.000000000000 Eh    ::
         :: total charge               0.000000000008 e     ::
         :::::::::::::::::::::::::::::::::::::::::::::::::::::

           -------------------------------------------------
          |                Property Printout                |
           -------------------------------------------------

    * Orbital Energies and Occupations

         #    Occupation            Energy/Eh            Energy/eV
      -------------------------------------------------------------
         1        2.0000           -0.7696144             -20.9423
       ...           ...                  ...                  ...
        73        2.0000           -0.4422984             -12.0356
        74        2.0000           -0.4379966             -11.9185
        75        2.0000           -0.4360713             -11.8661
        76        2.0000           -0.4299896             -11.7006
        77        2.0000           -0.4251692             -11.5694
        78        2.0000           -0.4204493             -11.4410
        79        2.0000           -0.4155637             -11.3081
        80        2.0000           -0.4095611             -11.1447
        81        2.0000           -0.4068436             -11.0708
        82        2.0000           -0.3991094             -10.8603
        83        2.0000           -0.3874452             -10.5429
        84        2.0000           -0.3591672              -9.7734
        85        2.0000           -0.3465929              -9.4313 (HOMO)
        86        0.0000           -0.3218450              -8.7578 (LUMO)
        87                         -0.2609916              -7.1019
        88                         -0.2564887              -6.9794
        89                         -0.2527217              -6.8769
        90                         -0.2496195              -6.7925
        91                         -0.2432536              -6.6193
        92                         -0.2291075              -6.2343
        93                         -0.2104888              -5.7277
        94                         -0.2075401              -5.6475
        95                         -0.1878778              -5.1124
        96                         -0.1571796              -4.2771
       ...                                ...                  ...
       170                          1.2253654              33.3439
      -------------------------------------------------------------
                  HL-Gap            0.0247479 Eh            0.6734 eV
             Fermi-level           -0.3342190 Eh           -9.0946 eV

     #   Z          covCN         q      C6AA      α(0)
     1   6 C        3.758    -0.115    22.752     6.800
     2   6 C        2.965     0.024    27.469     8.597
     3   6 C        2.925    -0.035    28.866     8.811
     4   6 C        2.921    -0.047    29.169     8.857
     5   6 C        2.905     0.041    27.071     8.531
     6   7 N        2.772    -0.018    21.596     6.902
     7   7 N        1.965    -0.108    24.103     7.281
     8   6 C        2.874    -0.055    29.362     8.883
     9   6 C        2.802     0.190    23.932     8.014
    10   8 O        0.858    -0.354    20.777     6.111
    11  16 S        3.876     0.968   107.579    17.457
    12   8 O        0.860    -0.540    24.688     6.662
    13   8 O        0.860    -0.533    24.533     6.641
    14   6 C        2.972    -0.079    29.970     8.980
    15   6 C        3.007    -0.034    28.835     8.809
    16   6 C        2.925    -0.037    28.918     8.819
    17   6 C        2.972     0.015    27.676     8.629
    18   6 C        3.951    -0.012    20.728     6.469
    19   6 C        3.804    -0.017    20.869     6.504
    20  16 S        1.991    -0.115   145.860    20.327
    21  16 S        2.018    -0.120   146.103    20.344
    22   6 C        3.824    -0.004    20.639     6.465
    23   6 C        2.931    -0.031    28.765     8.796
    24   6 C        2.981     0.033    27.258     8.564
    25   6 C        3.874    -0.057    21.543     6.600
    26   6 C        3.797     0.002    20.544     6.454
    27  16 S        1.908    -0.281   153.187    20.831
    28   6 C        2.692     0.375    20.654     7.438
    29   8 O        0.856    -0.405    21.776     6.256
    30   8 O        1.660    -0.369    20.248     6.075
    31   6 C        2.918    -0.039    28.961     8.825
    32   6 C        2.926    -0.035    28.868     8.811
    33   1 H        0.925     0.050     2.321     2.382
    34   1 H        0.925     0.058     2.218     2.329
    35   1 H        0.925     0.056     2.249     2.345
    36   1 H        0.926     0.047     2.363     2.404
    37   1 H        0.926     0.042     2.424     2.435
    38   1 H        0.860     0.194     1.138     1.671
    39   1 H        0.922     0.027     2.630     2.536
    40   1 H        0.926     0.053     2.277     2.360
    41   1 H        0.926     0.042     2.426     2.435
    42   1 H        0.924     0.050     2.320     2.382
    43   1 H        0.925     0.070     2.082     2.256
    44   1 H        0.925     0.051     2.308     2.376
    45   1 H        0.925     0.054     2.265     2.354
    46   1 H        0.925     0.056     2.251     2.346
    47   1 H        0.926     0.090     1.877     2.142
    48   1 H        0.924     0.117     1.634     1.999
    49   1 H        0.925     0.076     2.016     2.220
    50   1 H        0.925     0.058     2.225     2.333
    51   1 H        0.923     0.169     1.270     1.763
    52   1 H        0.804     0.333     0.630     1.246
    53   1 H        0.926     0.046     2.367     2.406
    54   1 H        0.926     0.050     2.314     2.379

 Mol. C6AA /au·bohr⁶  :      47259.849553
 Mol. C8AA /au·bohr⁸  :    1341334.554396
 Mol. α(0) /au        :        342.641318


Wiberg/Mayer (AO) data.
largest (>0.10) Wiberg bond orders for each atom

 ---------------------------------------------------------------------------
     #   Z sym  total        # sym  WBO       # sym  WBO       # sym  WBO
 ---------------------------------------------------------------------------
     1   6 C    3.994 --     2 C    1.031    33 H    0.984    35 H    0.973
                            34 H    0.966
     2   6 C    3.974 --     3 C    1.407    32 C    1.393     1 C    1.031
     3   6 C    3.990 --     4 C    1.450     2 C    1.407    36 H    0.968
                            31 C    0.103
     4   6 C    3.981 --     3 C    1.450     5 C    1.379    37 H    0.968
                            32 C    0.104
     5   6 C    3.959 --     4 C    1.379    31 C    1.368     6 N    1.024
     6   7 N    3.565 --     7 N    1.279     5 C    1.024    38 H    0.924
                             8 C    0.155
     7   7 N    3.130 --     8 C    1.616     6 N    1.279
     8   6 C    3.947 --     7 N    1.616     9 C    1.108    11 S    0.730
                             6 N    0.155
     9   6 C    3.938 --    10 O    1.806     8 C    1.108    39 H    0.922
    10   8 O    2.059 --     9 C    1.806
    11  16 S    4.921 --    13 O    1.676    12 O    1.645    14 C    0.750
                             8 C    0.730
    12   8 O    1.963 --    11 S    1.645    13 O    0.107
    13   8 O    1.966 --    11 S    1.676    12 O    0.107
    14   6 C    3.964 --    15 C    1.411    24 C    1.398    11 S    0.750
    15   6 C    3.988 --    16 C    1.454    14 C    1.411    40 H    0.964
                            23 C    0.106
    16   6 C    3.988 --    15 C    1.454    17 C    1.394    41 H    0.967
                            24 C    0.103
    17   6 C    3.985 --    23 C    1.426    16 C    1.394    18 C    0.999
    18   6 C    3.994 --    19 C    1.000    17 C    0.999    22 C    0.982
                            42 H    0.949
    19   6 C    3.977 --    18 C    1.000    44 H    0.977    20 S    0.973
                            43 H    0.971
    20  16 S    2.198 --    21 S    1.148    19 C    0.973
    21  16 S    2.226 --    20 S    1.148    22 C    0.989
    22   6 C    3.980 --    21 S    0.989    18 C    0.982    45 H    0.974
                            46 H    0.970
    23   6 C    3.984 --    17 C    1.426    24 C    1.391    47 H    0.953
                            15 C    0.106
    24   6 C    3.986 --    14 C    1.398    23 C    1.391    25 C    1.007
                            16 C    0.103
    25   6 C    3.989 --    24 C    1.007    26 C    0.966    28 C    0.957
                            48 H    0.910
    26   6 C    3.976 --    27 S    1.001    50 H    0.974    49 H    0.968
                            25 C    0.966
    27  16 S    2.025 --    26 C    1.001    51 H    0.953
    28   6 C    3.915 --    29 O    1.767    30 O    1.140    25 C    0.957
    29   8 O    2.047 --    28 C    1.767    30 O    0.173
    30   8 O    2.207 --    28 C    1.140    52 H    0.864    29 O    0.173
    31   6 C    3.991 --    32 C    1.464     5 C    1.368    53 H    0.966
                             3 C    0.103
    32   6 C    3.991 --    31 C    1.464     2 C    1.393    54 H    0.968
                             4 C    0.104
    33   1 H    0.997 --     1 C    0.984
    34   1 H    0.995 --     1 C    0.966
    35   1 H    0.996 --     1 C    0.973
    36   1 H    0.997 --     3 C    0.968
    37   1 H    0.998 --     4 C    0.968
    38   1 H    0.962 --     6 N    0.924
    39   1 H    0.999 --     9 C    0.922
    40   1 H    0.996 --    15 C    0.964
    41   1 H    0.997 --    16 C    0.967
    42   1 H    0.997 --    18 C    0.949
    43   1 H    0.995 --    19 C    0.971
    44   1 H    0.997 --    19 C    0.977
    45   1 H    0.996 --    22 C    0.974
    46   1 H    0.997 --    22 C    0.970
    47   1 H    0.991 --    23 C    0.953
    48   1 H    0.986 --    25 C    0.910
    49   1 H    0.993 --    26 C    0.968
    50   1 H    0.997 --    26 C    0.974
    51   1 H    0.971 --    27 S    0.953
    52   1 H    0.888 --    30 O    0.864
    53   1 H    0.998 --    31 C    0.966
    54   1 H    0.997 --    32 C    0.968
 ---------------------------------------------------------------------------

Topologies differ in total number of bonds
Writing topology from bond orders to xtbtopo.mol

molecular dipole:
                 x           y           z       tot (Debye)
 q only:        3.393       2.169       0.782
   full:        4.391       2.586       0.939      13.171
molecular quadrupole (traceless):
                xx          xy          yy          xz          yz          zz
 q only:       16.435      -9.538       1.025       5.172     -12.652     -17.460
  q+dip:        3.342     -16.120      12.297       5.132     -16.247     -15.640
   full:        4.625     -16.289      10.672       5.822     -14.664     -15.298

           -------------------------------------------------
          |                Geometry Summary                 |
           -------------------------------------------------

      molecular mass/u    :      510.6697311
   center of mass at/Å    :       -0.8412312      -0.2034582      -0.1083779
  moments of inertia/u·Å² :        0.2347240E+04   0.9501528E+04   0.9861259E+04
rotational constants/cm⁻¹ :        0.7181897E-02   0.1774202E-02   0.1709481E-02

 * 47 selected distances

     #   Z          #   Z                                           value/Å
     2   6 C        3   6 C                                       1.3893257
     3   6 C        4   6 C                                       1.3824168
     4   6 C        5   6 C                                       1.3901852
     5   6 C        6   7 N                                       1.4106947
     6   7 N        7   7 N                                       1.2968920
     7   7 N        8   6 C                                       1.2808037
     9   6 C       10   8 O                                       1.2112933
     8   6 C       11  16 S                                       1.8317570
    11  16 S       12   8 O                                       1.4406363
    11  16 S       13   8 O                                       1.4365614
    11  16 S       14   6 C                                       1.8026503
    14   6 C       15   6 C                                       1.3839962
    15   6 C       16   6 C                                       1.3798498
    16   6 C       17   6 C                                       1.3916551
    18   6 C       19   6 C                                       1.5264758
    20  16 S       21  16 S                                       2.0673996 (max)
    18   6 C       22   6 C                                       1.5321839
    17   6 C       23   6 C                                       1.3862977
    14   6 C       24   6 C                                       1.3872066
    23   6 C       24   6 C                                       1.3933749
    25   6 C       26   6 C                                       1.5357049
    28   6 C       29   8 O                                       1.2006496
    28   6 C       30   8 O                                       1.3355791
     5   6 C       31   6 C                                       1.3924897
     2   6 C       32   6 C                                       1.3924267
    31   6 C       32   6 C                                       1.3800244
     1   6 C       33   1 H                                       1.0865853
     1   6 C       34   1 H                                       1.0897480
     1   6 C       35   1 H                                       1.0883114
     3   6 C       36   1 H                                       1.0798764
     4   6 C       37   1 H                                       1.0800400
     6   7 N       38   1 H                                       1.0153128
    15   6 C       40   1 H                                       1.0788885
    16   6 C       41   1 H                                       1.0804685
    18   6 C       42   1 H                                       1.0962376
    19   6 C       43   1 H                                       1.0880486
    19   6 C       44   1 H                                       1.0899417
    22   6 C       45   1 H                                       1.0907747
    22   6 C       46   1 H                                       1.0875197
    23   6 C       47   1 H                                       1.0771009
    25   6 C       48   1 H                                       1.0954631
    26   6 C       49   1 H                                       1.0888056
    26   6 C       50   1 H                                       1.0887813
    27  16 S       51   1 H                                       1.3313227
    30   8 O       52   1 H                                       0.9701458 (min)
    31   6 C       53   1 H                                       1.0797196
    32   6 C       54   1 H                                       1.0796271

 * 11 distinct bonds (by element types)

   Z      Z             #   av. dist./Å        max./Å        min./Å
   1 H    6 C          18     1.0858855     1.0962376     1.0771009
   6 C    6 C          15     1.4162409     1.5357049     1.3798498
   1 H    7 N           1     1.0153128     1.0153128     1.0153128
   6 C    7 N           2     1.3457492     1.4106947     1.2808037
   7 N    7 N           1     1.2968920     1.2968920     1.2968920
   1 H    8 O           1     0.9701458     0.9701458     0.9701458
   6 C    8 O           3     1.2491740     1.3355791     1.2006496
   1 H   16 S           1     1.3313227     1.3313227     1.3313227
   6 C   16 S           2     1.8172036     1.8317570     1.8026503
   8 O   16 S           2     1.4385988     1.4406363     1.4365614
  16 S   16 S           1     2.0673996     2.0673996     2.0673996


optimized geometry written to: xtbopt.xyz


           -------------------------------------------------
          | TOTAL ENERGY              -95.304036936793 Eh   |
          | GRADIENT NORM               0.000370848235 Eh/α |
          | HOMO-LUMO GAP               0.673425730221 eV   |
           -------------------------------------------------

------------------------------------------------------------------------
 * finished run on 2024/05/30 at 17:35:15.937     
------------------------------------------------------------------------
 total:
 * wall-time:     0 d,  0 h,  1 min, 34.660 sec
 *  cpu-time:     0 d,  0 h,  0 min, 41.670 sec
 * ratio c/w:     0.440 speedup
 SCF:
 * wall-time:     0 d,  0 h,  0 min,  1.910 sec
 *  cpu-time:     0 d,  0 h,  0 min,  0.211 sec
 * ratio c/w:     0.110 speedup
 ANC optimizer:
 * wall-time:     0 d,  0 h,  1 min, 32.643 sec
 *  cpu-time:     0 d,  0 h,  0 min, 41.417 sec
 * ratio c/w:     0.447 speedup

