      -----------------------------------------------------------      
     |                   =====================                   |     
     |                           x T B                           |     
     |                   =====================                   |     
     |                         S. Grimme                         |     
     |          Mulliken Center for Theoretical Chemistry        |     
     |                    University of Bonn                     |     
      -----------------------------------------------------------      

   * xtb version 6.5.1 (fef0646) compiled by 'conda@b96dff2e9fd6' on 2023-01-04

   xtb is free software: you can redistribute it and/or modify it under
   the terms of the GNU Lesser General Public License as published by
   the Free Software Foundation, either version 3 of the License, or
   (at your option) any later version.
   
   xtb is distributed in the hope that it will be useful,
   but WITHOUT ANY WARRANTY; without even the implied warranty of
   MERCHANTABILITY or FITNESS FOR A PARTICULAR PURPOSE.  See the
   GNU Lesser General Public License for more details.
   
   Cite this work as:
   * C. Bannwarth, E. Caldeweyher, S. Ehlert, A. Hansen, P. Pracht,
     J. Seibert, S. Spicher, S. Grimme, WIREs Comput. Mol. Sci., 2020, 11,
     e01493. DOI: 10.1002/wcms.1493
   
   for GFN2-xTB:
   * C. Bannwarth, S. Ehlert and S. Grimme., J. Chem. Theory Comput., 2019,
     15, 1652-1671. DOI: 10.1021/acs.jctc.8b01176
   for GFN1-xTB:
   * S. Grimme, C. Bannwarth, P. Shushkov, J. Chem. Theory Comput., 2017,
     13, 1989-2009. DOI: 10.1021/acs.jctc.7b00118
   for GFN0-xTB:
   * P. Pracht, E. Caldeweyher, S. Ehlert, S. Grimme, ChemRxiv, 2019, preprint.
     DOI: 10.26434/chemrxiv.8326202.v1
   for GFN-FF:
   * S. Spicher and S. Grimme, Angew. Chem. Int. Ed., 2020, 59, 15665-15673.
     DOI: 10.1002/anie.202004239
   
   for ALPB and GBSA implicit solvation:
   * S. Ehlert, M. Stahn, S. Spicher, S. Grimme, J. Chem. Theory Comput.,
     2021, 17, 4250-4261. DOI: 10.1021/acs.jctc.1c00471
   
   for DFT-D4:
   * E. Caldeweyher, C. Bannwarth and S. Grimme, J. Chem. Phys., 2017,
     147, 034112. DOI: 10.1063/1.4993215
   * E. Caldeweyher, S. Ehlert, A. Hansen, H. Neugebauer, S. Spicher,
     C. Bannwarth and S. Grimme, J. Chem. Phys., 2019, 150, 154122.
     DOI: 10.1063/1.5090222
   * E. Caldeweyher, J.-M. Mewes, S. Ehlert and S. Grimme, Phys. Chem. Chem. Phys.
     2020, 22, 8499-8512. DOI: 10.1039/D0CP00502A
   
   for sTDA-xTB:
   * S. Grimme and C. Bannwarth, J. Chem. Phys., 2016, 145, 054103.
     DOI: 10.1063/1.4959605
   
   in the mass-spec context:
   * V. Asgeirsson, C. Bauer and S. Grimme, Chem. Sci., 2017, 8, 4879.
     DOI: 10.1039/c7sc00601b
   * J. Koopman and S. Grimme, ACS Omega 2019, 4, 12, 15120-15133.
     DOI: 10.1021/acsomega.9b02011
   
   for metadynamics refer to:
   * S. Grimme, J. Chem. Theory Comput., 2019, 155, 2847-2862
     DOI: 10.1021/acs.jctc.9b00143
   
   for SPH calculations refer to:
   * S. Spicher and S. Grimme, J. Chem. Theory Comput., 2021, 17, 1701-1714
     DOI: 10.1021/acs.jctc.0c01306
   
   with help from (in alphabetical order)
   P. Atkinson, C. Bannwarth, F. Bohle, G. Brandenburg, E. Caldeweyher
   M. Checinski, S. Dohm, S. Ehlert, S. Ehrlich, I. Gerasimov, C. Hölzer
   A. Katbashev, J. Koopman, C. Lavigne, S. Lehtola, F. März, M. Müller,
   F. Musil, H. Neugebauer, J. Pisarek, C. Plett, P. Pracht, F. Pultar,
   J. Seibert, P. Shushkov, S. Spicher, M. Stahn, M. Steiner, T. Strunk,
   J. Stückrath, T. Rose, and J. Unsleber
   
 * started run on 2024/05/30 at 17:43:12.172     

           -------------------------------------------------
          |                Calculation Setup                |
           -------------------------------------------------

          program call               : /home/student7/miniconda3/envs/ga-formed/bin/xtb xtb.xyz --input xcontrol --chrg 0 --uhf 0 --acc 1.0 --gfn 2 --opt tight
          hostname                   : lcmdlc3.epfl.ch
          coordinate file            : xtb.xyz
          omp threads                :                     1

########################################################################
[WARNING] Please study the warnings concerning your input carefully
-2- userdata_read: could not find 'xcontrol'
-1- set_rdcontrol: could not find 'xcontrol'
########################################################################

           -------------------------------------------------
          |                 G F N 2 - x T B                 |
           -------------------------------------------------

        Reference                      10.1021/acs.jctc.8b01176
      * Hamiltonian:
        H0-scaling (s, p, d)           1.850000    2.230000    2.230000
        zeta-weighting                 0.500000
      * Dispersion:
        s8                             2.700000
        a1                             0.520000
        a2                             5.000000
        s9                             5.000000
      * Repulsion:
        kExp                           1.500000    1.000000
        rExp                           1.000000
      * Coulomb:
        alpha                          2.000000
        third order                    shell-resolved
        anisotropic                    true
        a3                             3.000000
        a5                             4.000000
        cn-shift                       1.200000
        cn-exp                         4.000000
        max-rad                        5.000000


          ...................................................
          :                      SETUP                      :
          :.................................................:
          :  # basis functions                 185          :
          :  # atomic orbitals                 182          :
          :  # shells                           94          :
          :  # electrons                       192          :
          :  max. iterations                   250          :
          :  Hamiltonian                  GFN2-xTB          :
          :  restarted?                      false          :
          :  GBSA solvation                  false          :
          :  PC potential                    false          :
          :  electronic temp.          300.0000000     K    :
          :  accuracy                    1.0000000          :
          :  -> integral cutoff          0.2500000E+02      :
          :  -> integral neglect         0.1000000E-07      :
          :  -> SCF convergence          0.1000000E-05 Eh   :
          :  -> wf. convergence          0.1000000E-03 e    :
          :  Broyden damping             0.4000000          :
          ...................................................

 iter      E             dE          RMSdq      gap      omega  full diag
   1   -111.1164270 -0.111116E+03  0.490E+00    0.50       0.0  T
   2   -111.1949896 -0.785625E-01  0.322E+00    0.53       1.0  T
   3   -110.9678289  0.227161E+00  0.290E+00    0.82       1.0  T
   4   -111.3871174 -0.419288E+00  0.128E+00    0.39       1.0  T
   5   -111.3880412 -0.923771E-03  0.946E-01    0.59       1.0  T
   6   -111.3410531  0.469881E-01  0.110E+00    0.38       1.0  T
   7   -111.4189477 -0.778947E-01  0.609E-01    0.50       1.0  T
   8   -111.4365058 -0.175581E-01  0.350E-01    0.42       1.0  T
   9   -111.4441779 -0.767206E-02  0.114E-01    0.37       1.0  T
  10   -111.4447796 -0.601710E-03  0.550E-02    0.36       1.0  T
  11   -111.4448164 -0.367851E-04  0.295E-02    0.35       1.0  T
  12   -111.4447663  0.500971E-04  0.367E-02    0.34       1.0  T
  13   -111.4448371 -0.708318E-04  0.155E-02    0.35       1.0  T
  14   -111.4448420 -0.490551E-05  0.713E-03    0.35       1.9  T
  15   -111.4448407  0.131993E-05  0.676E-03    0.35       2.0  T
  16   -111.4448429 -0.219965E-05  0.347E-03    0.35       4.0  T
  17   -111.4448433 -0.437045E-06  0.215E-03    0.35       6.4  T
  18   -111.4448436 -0.236989E-06  0.952E-04    0.35      14.4  T
  19   -111.4448436 -0.298621E-07  0.593E-04    0.35      23.2  T

   *** convergence criteria satisfied after 19 iterations ***

         #    Occupation            Energy/Eh            Energy/eV
      -------------------------------------------------------------
         1        2.0000           -1.0697167             -29.1085
       ...           ...                  ...                  ...
        90        2.0000           -0.4043498             -11.0029
        91        2.0000           -0.4039521             -10.9921
        92        2.0000           -0.3968740             -10.7995
        93        2.0000           -0.3926164             -10.6836
        94        2.0000           -0.3900520             -10.6139
        95        2.0000           -0.3850210             -10.4770
        96        1.9977           -0.3611977              -9.8287 (HOMO)
        97        0.0023           -0.3483658              -9.4795 (LUMO)
        98                         -0.3176641              -8.6441
        99                         -0.2905420              -7.9061
       100                         -0.2548682              -6.9353
       101                         -0.2523605              -6.8671
       ...                                ...                  ...
       182                          0.6747159              18.3600
      -------------------------------------------------------------
                  HL-Gap            0.0128319 Eh            0.3492 eV
             Fermi-level           -0.3547818 Eh           -9.6541 eV

 SCC (total)                   0 d,  0 h,  0 min,  1.689 sec
 SCC setup                      ...        0 min,  0.001 sec (  0.059%)
 Dispersion                     ...        0 min,  0.008 sec (  0.501%)
 classical contributions        ...        0 min,  0.000 sec (  0.021%)
 integral evaluation            ...        0 min,  0.135 sec (  7.999%)
 iterations                     ...        0 min,  1.158 sec ( 68.582%)
 molecular gradient             ...        0 min,  0.367 sec ( 21.744%)
 printout                       ...        0 min,  0.018 sec (  1.092%)

         :::::::::::::::::::::::::::::::::::::::::::::::::::::
         ::                     SUMMARY                     ::
         :::::::::::::::::::::::::::::::::::::::::::::::::::::
         :: total energy            -110.226702246049 Eh    ::
         :: gradient norm              0.177959670934 Eh/a0 ::
         :: HOMO-LUMO gap              0.349172968306 eV    ::
         ::.................................................::
         :: SCC energy              -111.444843591814 Eh    ::
         :: -> isotropic ES            0.152839732317 Eh    ::
         :: -> anisotropic ES          0.005311949534 Eh    ::
         :: -> anisotropic XC          0.027032114286 Eh    ::
         :: -> dispersion             -0.076869502828 Eh    ::
         :: repulsion energy           1.217349339435 Eh    ::
         :: add. restraining           0.000000000000 Eh    ::
         :: total charge              -0.000000000000 e     ::
         :::::::::::::::::::::::::::::::::::::::::::::::::::::

      ----------------------------------------------------------- 
     |                   =====================                   |
     |                        A N C O P T                        |
     |                   =====================                   |
     |               Approximate Normal Coordinate               |
     |                Rational Function Optimizer                |
      ----------------------------------------------------------- 

          ...................................................
          :                      SETUP                      :
          :.................................................:
          :   optimization level             tight          :
          :   max. optcycles                   265          :
          :   ANC micro-cycles                  20          :
          :   degrees of freedom               153          :
          :.................................................:
          :   RF solver                   davidson          :
          :   write xtbopt.log                true          :
          :   linear?                        false          :
          :   energy convergence         0.1000000E-05 Eh   :
          :   grad. convergence          0.8000000E-03 Eh/α :
          :   maximium RF displ.         1.0000000          :
          :   Hlow (freq-cutoff)         0.1000000E-01      :
          :   Hmax (freq-cutoff)         5.0000000          :
          :   S6 in model hess.         20.0000000          :
          ...................................................

generating ANC from model Hessian ...
Using Lindh-Hessian (1995)
 Shifting diagonal of input Hessian by    9.8181209308485524E-003
 Lowest  eigenvalues of input Hessian
    0.000000    0.000000    0.000000    0.000000    0.000000    0.000000
    0.010000    0.010089    0.010208    0.010506    0.010598    0.010983
    0.011377    0.011798    0.013219    0.013816    0.014562    0.015522
 Highest eigenvalues
    2.055646    2.080089    2.108784    2.234734    2.319483    2.377649


........................................................................
.............................. CYCLE    1 ..............................
........................................................................
   1   -111.4448436 -0.111445E+03  0.375E-04    0.35       0.0  T
   2   -111.4448436  0.182894E-10  0.334E-04    0.35      41.2  T
   3   -111.4448436  0.124089E-07  0.499E-04    0.35      27.5  T
     SCC iter.                  ...        0 min,  0.159 sec
     gradient                   ...        0 min,  0.559 sec
 * total energy  :  -110.2267022 Eh     change        0.3603915E-08 Eh
   gradient norm :     0.1779542 Eh/α   predicted     0.0000000E+00 (-100.00%)
   displ. norm   :     0.4118964 α      lambda       -0.4063992E-01
   maximum displ.:     0.1334565 α      in ANC's #39, #44, #46, ...

........................................................................
.............................. CYCLE    2 ..............................
........................................................................
   1   -111.5197069 -0.111520E+03  0.383E-01    0.37       0.0  T
   2   -111.4595693  0.601376E-01  0.887E-01    0.66       1.0  T
   3   -111.5259072 -0.663379E-01  0.157E-01    0.38       1.0  T
   4   -111.5261893 -0.282082E-03  0.898E-02    0.39       1.0  T
   5   -111.5262390 -0.497264E-04  0.555E-02    0.38       1.0  T
   6   -111.5263602 -0.121192E-03  0.168E-02    0.38       1.0  T
   7   -111.5263724 -0.121714E-04  0.906E-03    0.38       1.5  T
   8   -111.5263737 -0.125586E-05  0.615E-03    0.38       2.2  T
   9   -111.5263742 -0.552182E-06  0.443E-03    0.38       3.1  T
  10   -111.5263746 -0.400168E-06  0.319E-03    0.38       4.3  T
  11   -111.5263748 -0.236919E-06  0.183E-03    0.38       7.5  T
  12   -111.5263749 -0.937699E-07  0.940E-04    0.38      14.6  T
  13   -111.5263750 -0.170876E-07  0.455E-04    0.38      30.2  T
     SCC iter.                  ...        0 min,  0.748 sec
     gradient                   ...        0 min,  0.559 sec
 * total energy  :  -110.2568954 Eh     change       -0.3019317E-01 Eh
   gradient norm :     0.0883363 Eh/α   predicted    -0.2379439E-01 ( -21.19%)
   displ. norm   :     0.4254727 α      lambda       -0.1943499E-01
   maximum displ.:     0.1226355 α      in ANC's #18, #39, #14, ...

........................................................................
.............................. CYCLE    3 ..............................
........................................................................
   1   -111.5709641 -0.111571E+03  0.405E-01    0.41       0.0  T
   2   -111.5140128  0.569513E-01  0.881E-01    0.70       1.0  T
   3   -111.5794797 -0.654668E-01  0.141E-01    0.43       1.0  T
   4   -111.5794755  0.415827E-05  0.877E-02    0.43       1.0  T
   5   -111.5793836  0.919588E-04  0.631E-02    0.41       1.0  T
   6   -111.5796208 -0.237261E-03  0.127E-02    0.42       1.1  T
   7   -111.5796241 -0.331585E-05  0.831E-03    0.42       1.7  T
   8   -111.5796255 -0.138467E-05  0.559E-03    0.42       2.5  T
   9   -111.5796260 -0.462197E-06  0.399E-03    0.42       3.4  T
  10   -111.5796263 -0.278348E-06  0.285E-03    0.42       4.8  T
  11   -111.5796264 -0.152659E-06  0.168E-03    0.42       8.2  T
  12   -111.5796265 -0.921883E-07  0.703E-04    0.42      19.5  T
  13   -111.5796265 -0.673043E-08  0.380E-04    0.42      36.2  T
     SCC iter.                  ...        0 min,  0.585 sec
     gradient                   ...        0 min,  0.496 sec
 * total energy  :  -110.2688366 Eh     change       -0.1194117E-01 Eh
   gradient norm :     0.0302023 Eh/α   predicted    -0.1147663E-01 (  -3.89%)
   displ. norm   :     0.3562655 α      lambda       -0.4338634E-02
   maximum displ.:     0.1607318 α      in ANC's #14, #18, #12, ...

........................................................................
.............................. CYCLE    4 ..............................
........................................................................
   1   -111.5838856 -0.111584E+03  0.201E-01    0.43       0.0  T
   2   -111.5649074  0.189782E-01  0.504E-01    0.55       1.0  T
   3   -111.5860349 -0.211275E-01  0.776E-02    0.44       1.0  T
   4   -111.5859867  0.482267E-04  0.553E-02    0.45       1.0  T
   5   -111.5860482 -0.614901E-04  0.238E-02    0.44       1.0  T
   6   -111.5860782 -0.300051E-04  0.763E-03    0.44       1.8  T
   7   -111.5860809 -0.272083E-05  0.356E-03    0.44       3.9  T
   8   -111.5860811 -0.170491E-06  0.227E-03    0.44       6.1  T
   9   -111.5860813 -0.227814E-06  0.134E-03    0.44      10.3  T
  10   -111.5860813 -0.235985E-07  0.993E-04    0.44      13.8  T
  11   -111.5860814 -0.207757E-07  0.598E-04    0.44      23.0  T
     SCC iter.                  ...        0 min,  0.581 sec
     gradient                   ...        0 min,  0.574 sec
 * total energy  :  -110.2718237 Eh     change       -0.2987106E-02 Eh
   gradient norm :     0.0179913 Eh/α   predicted    -0.2444689E-02 ( -18.16%)
   displ. norm   :     0.4991345 α      lambda       -0.3765015E-02
   maximum displ.:     0.2310020 α      in ANC's #14, #18, #12, ...

........................................................................
.............................. CYCLE    5 ..............................
........................................................................
   1   -111.5837076 -0.111584E+03  0.196E-01    0.44       0.0  T
   2   -111.5724614  0.112462E-01  0.400E-01    0.53       1.0  T
   3   -111.5850409 -0.125795E-01  0.903E-02    0.45       1.0  T
   4   -111.5849354  0.105505E-03  0.672E-02    0.46       1.0  T
   5   -111.5851119 -0.176430E-03  0.199E-02    0.45       1.0  T
   6   -111.5851344 -0.225680E-04  0.694E-03    0.45       2.0  T
   7   -111.5851362 -0.177067E-05  0.352E-03    0.45       3.9  T
   8   -111.5851365 -0.284858E-06  0.211E-03    0.45       6.5  T
   9   -111.5851366 -0.130415E-06  0.138E-03    0.45      10.0  T
  10   -111.5851366 -0.329493E-07  0.965E-04    0.45      14.2  T
  11   -111.5851367 -0.178974E-07  0.591E-04    0.45      23.3  T
     SCC iter.                  ...        0 min,  0.516 sec
     gradient                   ...        0 min,  0.424 sec
 * total energy  :  -110.2732394 Eh     change       -0.1415702E-02 Eh
   gradient norm :     0.0280699 Eh/α   predicted    -0.2351509E-02 (  66.10%)
   displ. norm   :     0.3008739 α      lambda       -0.2504198E-02
   maximum displ.:     0.1696143 α      in ANC's #14, #18, #12, ...

........................................................................
.............................. CYCLE    6 ..............................
........................................................................
   1   -111.5846913 -0.111585E+03  0.870E-02    0.44       0.0  T
   2   -111.5847238 -0.324259E-04  0.548E-02    0.45       1.0  T
   3   -111.5844090  0.314757E-03  0.654E-02    0.44       1.0  T
   4   -111.5843914  0.176483E-04  0.681E-02    0.46       1.0  T
   5   -111.5847571 -0.365738E-03  0.514E-03    0.45       2.7  T
   6   -111.5847578 -0.734483E-06  0.318E-03    0.45       4.3  T
   7   -111.5847581 -0.250385E-06  0.185E-03    0.45       7.4  T
   8   -111.5847582 -0.648034E-07  0.119E-03    0.45      11.5  T
   9   -111.5847582 -0.322163E-07  0.837E-04    0.45      16.4  T
  10   -111.5847582 -0.154191E-07  0.381E-04    0.45      36.1  T
     SCC iter.                  ...        0 min,  0.517 sec
     gradient                   ...        0 min,  0.470 sec
 * total energy  :  -110.2748285 Eh     change       -0.1589063E-02 Eh
   gradient norm :     0.0158546 Eh/α   predicted    -0.1365446E-02 ( -14.07%)
   displ. norm   :     0.3387116 α      lambda       -0.1109950E-02
   maximum displ.:     0.1832137 α      in ANC's #14, #18, #12, ...

........................................................................
.............................. CYCLE    7 ..............................
........................................................................
   1   -111.5848805 -0.111585E+03  0.903E-02    0.43       0.0  T
   2   -111.5833878  0.149274E-02  0.140E-01    0.41       1.0  T
   3   -111.5844827 -0.109490E-02  0.879E-02    0.44       1.0  T
   4   -111.5849805 -0.497832E-03  0.135E-02    0.43       1.0  T
   5   -111.5849883 -0.781740E-05  0.423E-03    0.43       3.2  T
   6   -111.5849887 -0.381167E-06  0.242E-03    0.43       5.7  T
   7   -111.5849888 -0.138183E-06  0.124E-03    0.43      11.1  T
   8   -111.5849889 -0.607601E-07  0.679E-04    0.43      20.2  T
   9   -111.5849889 -0.556663E-08  0.533E-04    0.43      25.8  T
     SCC iter.                  ...        0 min,  0.462 sec
     gradient                   ...        0 min,  0.706 sec
 * total energy  :  -110.2757290 Eh     change       -0.9005559E-03 Eh
   gradient norm :     0.0124368 Eh/α   predicted    -0.6186584E-03 ( -31.30%)
   displ. norm   :     0.5460352 α      lambda       -0.1383372E-02
   maximum displ.:     0.2748829 α      in ANC's #14, #18, #12, ...

........................................................................
.............................. CYCLE    8 ..............................
........................................................................
   1   -111.5851480 -0.111585E+03  0.143E-01    0.41       0.0  T
   2   -111.5779707  0.717737E-02  0.299E-01    0.38       1.0  T
   3   -111.5849059 -0.693521E-02  0.109E-01    0.42       1.0  T
   4   -111.5855368 -0.630877E-03  0.242E-02    0.40       1.0  T
   5   -111.5855643 -0.275734E-04  0.777E-03    0.40       1.8  T
   6   -111.5855652 -0.857638E-06  0.442E-03    0.40       3.1  T
   7   -111.5855656 -0.383551E-06  0.209E-03    0.40       6.6  T
   8   -111.5855658 -0.188075E-06  0.110E-03    0.40      12.5  T
   9   -111.5855658 -0.283807E-07  0.800E-04    0.40      17.2  T
  10   -111.5855658 -0.946198E-08  0.591E-04    0.40      23.3  T
     SCC iter.                  ...        0 min,  0.658 sec
     gradient                   ...        0 min,  0.368 sec
 * total energy  :  -110.2768159 Eh     change       -0.1086842E-02 Eh
   gradient norm :     0.0105102 Eh/α   predicted    -0.8979182E-03 ( -17.38%)
   displ. norm   :     0.6014807 α      lambda       -0.1140370E-02
   maximum displ.:     0.2810920 α      in ANC's #14, #7, #12, ...

........................................................................
.............................. CYCLE    9 ..............................
........................................................................
   1   -111.5849207 -0.111585E+03  0.147E-01    0.39       0.0  T
   2   -111.5775360  0.738463E-02  0.304E-01    0.35       1.0  T
   3   -111.5844919 -0.695584E-02  0.118E-01    0.39       1.0  T
   4   -111.5852892 -0.797311E-03  0.238E-02    0.38       1.0  T
   5   -111.5853159 -0.267553E-04  0.871E-03    0.38       1.6  T
   6   -111.5853170 -0.102833E-05  0.522E-03    0.38       2.6  T
   7   -111.5853177 -0.738346E-06  0.199E-03    0.38       6.9  T
   8   -111.5853179 -0.176233E-06  0.979E-04    0.38      14.0  T
   9   -111.5853179 -0.230011E-07  0.680E-04    0.38      20.2  T
     SCC iter.                  ...        0 min,  0.490 sec
     gradient                   ...        0 min,  0.481 sec
 * total energy  :  -110.2777720 Eh     change       -0.9561117E-03 Eh
   gradient norm :     0.0106433 Eh/α   predicted    -0.7764675E-03 ( -18.79%)
   displ. norm   :     0.6693340 α      lambda       -0.1210254E-02
   maximum displ.:     0.2830568 α      in ANC's #14, #9, #7, ...

........................................................................
.............................. CYCLE   10 ..............................
........................................................................
   1   -111.5859498 -0.111586E+03  0.158E-01    0.37       0.0  T
   2   -111.5774644  0.848535E-02  0.325E-01    0.33       1.0  T
   3   -111.5853208 -0.785638E-02  0.132E-01    0.38       1.0  T
   4   -111.5863502 -0.102933E-02  0.246E-02    0.36       1.0  T
   5   -111.5863753 -0.251280E-04  0.961E-03    0.36       1.4  T
   6   -111.5863762 -0.904562E-06  0.606E-03    0.36       2.3  T
   7   -111.5863773 -0.107703E-05  0.225E-03    0.36       6.1  T
   8   -111.5863775 -0.263918E-06  0.949E-04    0.36      14.5  T
   9   -111.5863776 -0.222168E-07  0.614E-04    0.36      22.4  T
     SCC iter.                  ...        0 min,  0.489 sec
     gradient                   ...        0 min,  0.430 sec
 * total energy  :  -110.2788117 Eh     change       -0.1039723E-02 Eh
   gradient norm :     0.0101269 Eh/α   predicted    -0.8762308E-03 ( -15.72%)
   displ. norm   :     0.6961665 α      lambda       -0.1244356E-02
   maximum displ.:     0.3351861 α      in ANC's #9, #14, #7, ...

........................................................................
.............................. CYCLE   11 ..............................
........................................................................
   1   -111.5872298 -0.111587E+03  0.161E-01    0.35       0.0  T
   2   -111.5808141  0.641567E-02  0.287E-01    0.32       1.0  T
   3   -111.5859255 -0.511136E-02  0.157E-01    0.36       1.0  T
   4   -111.5875265 -0.160106E-02  0.255E-02    0.35       1.0  T
   5   -111.5875544 -0.278800E-04  0.100E-02    0.34       1.4  T
   6   -111.5875550 -0.570174E-06  0.711E-03    0.34       1.9  T
   7   -111.5875567 -0.169735E-05  0.267E-03    0.34       5.1  T
   8   -111.5875571 -0.403451E-06  0.106E-03    0.34      12.9  T
   9   -111.5875571 -0.316786E-07  0.670E-04    0.34      20.5  T
  10   -111.5875571 -0.537206E-08  0.466E-04    0.34      29.5  T
     SCC iter.                  ...        0 min,  0.530 sec
     gradient                   ...        0 min,  0.428 sec
 * total energy  :  -110.2798631 Eh     change       -0.1051426E-02 Eh
   gradient norm :     0.0111943 Eh/α   predicted    -0.9237271E-03 ( -12.15%)
   displ. norm   :     0.6848742 α      lambda       -0.1141726E-02
   maximum displ.:     0.3746134 α      in ANC's #9, #7, #4, ...

........................................................................
.............................. CYCLE   12 ..............................
........................................................................
   1   -111.5896837 -0.111590E+03  0.154E-01    0.34       0.0  T
   2   -111.5861737  0.351006E-02  0.218E-01    0.31       1.0  T
   3   -111.5873582 -0.118456E-02  0.186E-01    0.36       1.0  T
   4   -111.5898484 -0.249022E-02  0.269E-02    0.33       1.0  T
   5   -111.5898791 -0.306813E-04  0.106E-02    0.33       1.3  T
   6   -111.5898798 -0.655181E-06  0.789E-03    0.33       1.7  T
   7   -111.5898818 -0.203567E-05  0.345E-03    0.33       4.0  T
   8   -111.5898826 -0.773663E-06  0.109E-03    0.33      12.6  T
   9   -111.5898826 -0.276524E-07  0.731E-04    0.33      18.8  T
  10   -111.5898826 -0.696001E-08  0.497E-04    0.33      27.6  T
     SCC iter.                  ...        0 min,  0.529 sec
     gradient                   ...        0 min,  0.440 sec
 * total energy  :  -110.2807833 Eh     change       -0.9201639E-03 Eh
   gradient norm :     0.0114536 Eh/α   predicted    -0.8386284E-03 (  -8.86%)
   displ. norm   :     0.7253161 α      lambda       -0.1039575E-02
   maximum displ.:     0.4103215 α      in ANC's #9, #7, #14, ...

........................................................................
.............................. CYCLE   13 ..............................
........................................................................
   1   -111.5854792 -0.111585E+03  0.171E-01    0.32       0.0  T
   2   -111.5828719  0.260729E-02  0.197E-01    0.30       1.0  T
   3   -111.5813564  0.151553E-02  0.240E-01    0.35       1.0  T
   4   -111.5855869 -0.423053E-02  0.433E-02    0.32       1.0  T
   5   -111.5856811 -0.942362E-04  0.135E-02    0.32       1.0  T
   6   -111.5856842 -0.302899E-05  0.996E-03    0.31       1.4  T
   7   -111.5856876 -0.340986E-05  0.475E-03    0.31       2.9  T
   8   -111.5856890 -0.140667E-05  0.137E-03    0.31      10.0  T
   9   -111.5856890 -0.420125E-07  0.925E-04    0.31      14.8  T
  10   -111.5856890 -0.120740E-07  0.620E-04    0.31      22.2  T
     SCC iter.                  ...        0 min,  0.651 sec
     gradient                   ...        0 min,  0.595 sec
 * total energy  :  -110.2815074 Eh     change       -0.7241495E-03 Eh
   gradient norm :     0.0181176 Eh/α   predicted    -0.7932429E-03 (   9.54%)
   displ. norm   :     0.5536615 α      lambda       -0.9819474E-03
   maximum displ.:     0.3514482 α      in ANC's #9, #4, #7, ...

........................................................................
.............................. CYCLE   14 ..............................
........................................................................
   1   -111.5926300 -0.111593E+03  0.127E-01    0.31       0.0  T
   2   -111.5919948  0.635152E-03  0.110E-01    0.29       1.0  T
   3   -111.5894772  0.251763E-02  0.203E-01    0.34       1.0  T
   4   -111.5926361 -0.315897E-02  0.361E-02    0.30       1.0  T
   5   -111.5927067 -0.705607E-04  0.130E-02    0.30       1.1  T
   6   -111.5927098 -0.305935E-05  0.938E-03    0.30       1.5  T
   7   -111.5927142 -0.441468E-05  0.400E-03    0.30       3.4  T
   8   -111.5927152 -0.100416E-05  0.105E-03    0.30      13.0  T
   9   -111.5927152  0.652804E-09  0.859E-04    0.30      16.0  T
  10   -111.5927152 -0.254971E-07  0.472E-04    0.30      29.1  T
     SCC iter.                  ...        0 min,  0.428 sec
     gradient                   ...        0 min,  0.238 sec
 * total energy  :  -110.2822229 Eh     change       -0.7154937E-03 Eh
   gradient norm :     0.0085195 Eh/α   predicted    -0.6414780E-03 ( -10.34%)
   displ. norm   :     0.6996311 α      lambda       -0.7774898E-03
   maximum displ.:     0.3995630 α      in ANC's #9, #7, #14, ...

........................................................................
.............................. CYCLE   15 ..............................
........................................................................
   1   -111.5869082 -0.111587E+03  0.162E-01    0.29       0.0  T
   2   -111.5842316  0.267662E-02  0.194E-01    0.27       1.0  T
   3   -111.5829701  0.126146E-02  0.236E-01    0.33       1.0  T
   4   -111.5870117 -0.404155E-02  0.428E-02    0.29       1.0  T
   5   -111.5870930 -0.812981E-04  0.130E-02    0.29       1.1  T
   6   -111.5870947 -0.174677E-05  0.981E-03    0.29       1.4  T
   7   -111.5870970 -0.231896E-05  0.564E-03    0.29       2.4  T
   8   -111.5870992 -0.213884E-05  0.130E-03    0.29      10.6  T
   9   -111.5870992 -0.161105E-07  0.992E-04    0.29      13.8  T
  10   -111.5870992 -0.319439E-07  0.583E-04    0.29      23.5  T
     SCC iter.                  ...        0 min,  0.572 sec
     gradient                   ...        0 min,  0.429 sec
 * total energy  :  -110.2827936 Eh     change       -0.5706674E-03 Eh
   gradient norm :     0.0107391 Eh/α   predicted    -0.5790372E-03 (   1.47%)
   displ. norm   :     0.5730566 α      lambda       -0.8274331E-03
   maximum displ.:     0.3291197 α      in ANC's #9, #2, #7, ...

........................................................................
.............................. CYCLE   16 ..............................
........................................................................
   1   -111.5957324 -0.111596E+03  0.118E-01    0.29       0.0  T
   2   -111.5954874  0.245054E-03  0.859E-02    0.28       1.0  T
   3   -111.5930271  0.246028E-02  0.188E-01    0.32       1.0  T
   4   -111.5956229 -0.259581E-02  0.478E-02    0.28       1.0  T
   5   -111.5957890 -0.166122E-03  0.102E-02    0.29       1.3  T
   6   -111.5957900 -0.996775E-06  0.817E-03    0.28       1.7  T
   7   -111.5957929 -0.284008E-05  0.398E-03    0.29       3.4  T
   8   -111.5957939 -0.100720E-05  0.116E-03    0.29      11.8  T
   9   -111.5957939 -0.229912E-07  0.855E-04    0.29      16.1  T
  10   -111.5957939 -0.269493E-07  0.483E-04    0.29      28.4  T
     SCC iter.                  ...        0 min,  0.535 sec
     gradient                   ...        0 min,  0.437 sec
 * total energy  :  -110.2833899 Eh     change       -0.5962807E-03 Eh
   gradient norm :     0.0086759 Eh/α   predicted    -0.5495792E-03 (  -7.83%)
   displ. norm   :     0.6524377 α      lambda       -0.5767267E-03
   maximum displ.:     0.3633228 α      in ANC's #9, #2, #14, ...

........................................................................
.............................. CYCLE   17 ..............................
........................................................................
   1   -111.5929936 -0.111593E+03  0.129E-01    0.29       0.0  T
   2   -111.5927939  0.199673E-03  0.863E-02    0.28       1.0  T
   3   -111.5896089  0.318496E-02  0.209E-01    0.32       1.0  T
   4   -111.5929008 -0.329188E-02  0.419E-02    0.28       1.0  T
   5   -111.5930348 -0.133983E-03  0.879E-03    0.29       1.6  T
   6   -111.5930362 -0.135504E-05  0.653E-03    0.28       2.1  T
   7   -111.5930377 -0.150993E-05  0.329E-03    0.28       4.2  T
   8   -111.5930384 -0.690976E-06  0.111E-03    0.29      12.4  T
   9   -111.5930384 -0.336719E-07  0.728E-04    0.28      18.9  T
  10   -111.5930384 -0.153481E-07  0.443E-04    0.28      31.0  T
     SCC iter.                  ...        0 min,  0.524 sec
     gradient                   ...        0 min,  0.442 sec
 * total energy  :  -110.2838366 Eh     change       -0.4467497E-03 Eh
   gradient norm :     0.0092926 Eh/α   predicted    -0.4111207E-03 (  -7.98%)
   displ. norm   :     0.5571329 α      lambda       -0.5573154E-03
   maximum displ.:     0.2686031 α      in ANC's #2, #9, #14, ...

........................................................................
.............................. CYCLE   18 ..............................
........................................................................
   1   -111.5961611 -0.111596E+03  0.887E-02    0.29       0.0  T
   2   -111.5957587  0.402492E-03  0.882E-02    0.30       1.0  T
   3   -111.5949084  0.850204E-03  0.129E-01    0.28       1.0  T
   4   -111.5961422 -0.123378E-02  0.316E-02    0.30       1.0  T
   5   -111.5962082 -0.659355E-04  0.583E-03    0.29       2.4  T
   6   -111.5962096 -0.140230E-05  0.274E-03    0.29       5.0  T
   7   -111.5962095  0.824155E-07  0.192E-03    0.29       7.2  T
   8   -111.5962097 -0.247830E-06  0.565E-04    0.29      24.3  T
   9   -111.5962097 -0.685836E-08  0.373E-04    0.29      36.9  T
     SCC iter.                  ...        0 min,  0.468 sec
     gradient                   ...        0 min,  0.422 sec
 * total energy  :  -110.2842784 Eh     change       -0.4418059E-03 Eh
   gradient norm :     0.0070179 Eh/α   predicted    -0.3651573E-03 ( -17.35%)
   displ. norm   :     0.6164961 α      lambda       -0.5217649E-03
   maximum displ.:     0.3052834 α      in ANC's #2, #9, #14, ...

........................................................................
.............................. CYCLE   19 ..............................
........................................................................
   1   -111.5950198 -0.111595E+03  0.102E-01    0.30       0.0  T
   2   -111.5943971  0.622783E-03  0.106E-01    0.32       1.0  T
   3   -111.5936550  0.742067E-03  0.136E-01    0.29       1.0  T
   4   -111.5950451 -0.139009E-02  0.235E-02    0.31       1.0  T
   5   -111.5950763 -0.311905E-04  0.599E-03    0.31       2.3  T
   6   -111.5950778 -0.156198E-05  0.352E-03    0.31       3.9  T
   7   -111.5950781 -0.228289E-06  0.211E-03    0.30       6.5  T
   8   -111.5950783 -0.243001E-06  0.768E-04    0.30      17.9  T
   9   -111.5950783 -0.919785E-08  0.554E-04    0.30      24.8  T
     SCC iter.                  ...        0 min,  0.482 sec
     gradient                   ...        0 min,  0.409 sec
 * total energy  :  -110.2847241 Eh     change       -0.4456929E-03 Eh
   gradient norm :     0.0085255 Eh/α   predicted    -0.3600409E-03 ( -19.22%)
   displ. norm   :     0.6072296 α      lambda       -0.6512018E-03
   maximum displ.:     0.3502820 α      in ANC's #2, #8, #14, ...

........................................................................
.............................. CYCLE   20 ..............................
........................................................................
   1   -111.6003102 -0.111600E+03  0.104E-01    0.32       0.0  T
   2   -111.5979661  0.234417E-02  0.179E-01    0.36       1.0  T
   3   -111.6001138 -0.214773E-02  0.828E-02    0.32       1.0  T
   4   -111.6004803 -0.366473E-03  0.219E-02    0.33       1.0  T
   5   -111.6005132 -0.329298E-04  0.520E-03    0.33       2.6  T
   6   -111.6005142 -0.974280E-06  0.245E-03    0.33       5.6  T
   7   -111.6005144 -0.181210E-06  0.117E-03    0.33      11.8  T
   8   -111.6005144 -0.358081E-07  0.737E-04    0.33      18.6  T
   9   -111.6005144 -0.137855E-07  0.406E-04    0.33      33.8  T
     SCC iter.                  ...        0 min,  0.428 sec
     gradient                   ...        0 min,  0.385 sec
 * total energy  :  -110.2852082 Eh     change       -0.4841034E-03 Eh
   gradient norm :     0.0095044 Eh/α   predicted    -0.4456610E-03 (  -7.94%)
   displ. norm   :     0.6930347 α      lambda       -0.6173495E-03
   maximum displ.:     0.3683641 α      in ANC's #2, #9, #14, ...
 * RMSD in coord.:     1.3037972 α      energy gain  -0.5850597E-01 Eh

generating ANC from model Hessian ...
Using Lindh-Hessian (1995)
 Shifting diagonal of input Hessian by    9.9233424871268076E-003
 Lowest  eigenvalues of input Hessian
    0.000000    0.000000    0.000000    0.000000    0.000000    0.000000
    0.010000    0.010121    0.010205    0.010548    0.010695    0.010926
    0.011245    0.011490    0.012058    0.014347    0.014475    0.015337
 Highest eigenvalues
    2.155875    2.191010    2.309010    2.312148    2.450143    2.619576


........................................................................
.............................. CYCLE   21 ..............................
........................................................................
   1   -111.5947270 -0.111595E+03  0.115E-01    0.35       0.0  T
   2   -111.5935725  0.115454E-02  0.138E-01    0.37       1.0  T
   3   -111.5940049 -0.432450E-03  0.111E-01    0.34       1.0  T
   4   -111.5948170 -0.812097E-03  0.233E-02    0.35       1.0  T
   5   -111.5948485 -0.315084E-04  0.505E-03    0.35       2.7  T
   6   -111.5948492 -0.674575E-06  0.305E-03    0.35       4.5  T
   7   -111.5948494 -0.177377E-06  0.182E-03    0.35       7.5  T
   8   -111.5948495 -0.102255E-06  0.104E-03    0.35      13.2  T
   9   -111.5948495 -0.171461E-07  0.774E-04    0.35      17.7  T
  10   -111.5948495 -0.538651E-08  0.565E-04    0.35      24.3  T
     SCC iter.                  ...        0 min,  0.583 sec
     gradient                   ...        0 min,  0.500 sec
 * total energy  :  -110.2856943 Eh     change       -0.4860949E-03 Eh
   gradient norm :     0.0086816 Eh/α   predicted     0.0000000E+00 (-100.00%)
   displ. norm   :     0.1021346 α      lambda       -0.2405412E-03
   maximum displ.:     0.0634266 α      in ANC's #1, #4, #5, ...

........................................................................
.............................. CYCLE   22 ..............................
........................................................................
   1   -111.5969374 -0.111597E+03  0.270E-02    0.35       0.0  T
   2   -111.5969355  0.190688E-05  0.168E-02    0.36       1.0  T
   3   -111.5968489  0.866199E-04  0.336E-02    0.35       1.0  T
   4   -111.5969285 -0.796299E-04  0.114E-02    0.36       1.2  T
   5   -111.5969393 -0.108352E-04  0.190E-03    0.35       7.2  T
   6   -111.5969394 -0.896968E-07  0.118E-03    0.35      11.7  T
   7   -111.5969395 -0.587250E-07  0.435E-04    0.35      31.6  T
   8   -111.5969395 -0.719784E-08  0.221E-04    0.35      62.1  T
     SCC iter.                  ...        0 min,  0.313 sec
     gradient                   ...        0 min,  0.348 sec
 * total energy  :  -110.2858909 Eh     change       -0.1965489E-03 Eh
   gradient norm :     0.0041821 Eh/α   predicted    -0.1215260E-03 ( -38.17%)
   displ. norm   :     0.2872788 α      lambda       -0.4267701E-03
   maximum displ.:     0.1738858 α      in ANC's #1, #4, #5, ...

........................................................................
.............................. CYCLE   23 ..............................
........................................................................
   1   -111.5994314 -0.111599E+03  0.686E-02    0.37       0.0  T
   2   -111.5993898  0.415329E-04  0.456E-02    0.37       1.0  T
   3   -111.5985997  0.790169E-03  0.102E-01    0.36       1.0  T
   4   -111.5994104 -0.810736E-03  0.208E-02    0.37       1.0  T
   5   -111.5994435 -0.330490E-04  0.489E-03    0.37       2.8  T
   6   -111.5994440 -0.554167E-06  0.301E-03    0.37       4.6  T
   7   -111.5994444 -0.403601E-06  0.107E-03    0.37      12.8  T
   8   -111.5994445 -0.406494E-07  0.603E-04    0.37      22.8  T
   9   -111.5994445 -0.968224E-08  0.358E-04    0.37      38.4  T
     SCC iter.                  ...        0 min,  0.421 sec
     gradient                   ...        0 min,  0.416 sec
 * total energy  :  -110.2861712 Eh     change       -0.2803659E-03 Eh
   gradient norm :     0.0066248 Eh/α   predicted    -0.2310066E-03 ( -17.61%)
   displ. norm   :     0.3150990 α      lambda       -0.3322593E-03
   maximum displ.:     0.1954478 α      in ANC's #1, #4, #5, ...

........................................................................
.............................. CYCLE   24 ..............................
........................................................................
   1   -111.5993007 -0.111599E+03  0.693E-02    0.38       0.0  T
   2   -111.5992494  0.512816E-04  0.471E-02    0.39       1.0  T
   3   -111.5984686  0.780815E-03  0.103E-01    0.37       1.0  T
   4   -111.5992853 -0.816725E-03  0.194E-02    0.38       1.0  T
   5   -111.5993138 -0.285035E-04  0.464E-03    0.38       3.0  T
   6   -111.5993144 -0.542681E-06  0.300E-03    0.38       4.6  T
   7   -111.5993148 -0.399746E-06  0.111E-03    0.38      12.3  T
   8   -111.5993148 -0.520761E-07  0.591E-04    0.38      23.2  T
   9   -111.5993148 -0.955356E-08  0.352E-04    0.38      39.0  T
     SCC iter.                  ...        0 min,  0.548 sec
     gradient                   ...        0 min,  0.145 sec
 * total energy  :  -110.2863936 Eh     change       -0.2223716E-03 Eh
   gradient norm :     0.0101490 Eh/α   predicted    -0.1826216E-03 ( -17.88%)
   displ. norm   :     0.3159540 α      lambda       -0.3097863E-03
   maximum displ.:     0.1983651 α      in ANC's #1, #4, #5, ...

........................................................................
.............................. CYCLE   25 ..............................
........................................................................
   1   -111.5983439 -0.111598E+03  0.659E-02    0.39       0.0  T
   2   -111.5982170  0.126943E-03  0.537E-02    0.40       1.0  T
   3   -111.5977397  0.477303E-03  0.902E-02    0.38       1.0  T
   4   -111.5983513 -0.611685E-03  0.139E-02    0.39       1.0  T
   5   -111.5983631 -0.117108E-04  0.437E-03    0.39       3.1  T
   6   -111.5983634 -0.368300E-06  0.290E-03    0.39       4.7  T
   7   -111.5983638 -0.426965E-06  0.987E-04    0.39      13.9  T
   8   -111.5983639 -0.354317E-07  0.561E-04    0.39      24.5  T
     SCC iter.                  ...        0 min,  0.157 sec
     gradient                   ...        0 min,  0.144 sec
 * total energy  :  -110.2866725 Eh     change       -0.2788814E-03 Eh
   gradient norm :     0.0096801 Eh/α   predicted    -0.1703546E-03 ( -38.92%)
   displ. norm   :     0.4669676 α      lambda       -0.5355384E-03
   maximum displ.:     0.2984625 α      in ANC's #1, #4, #5, ...

........................................................................
.............................. CYCLE   26 ..............................
........................................................................
   1   -111.5970289 -0.111597E+03  0.922E-02    0.40       0.0  T
   2   -111.5965593  0.469598E-03  0.902E-02    0.42       1.0  T
   3   -111.5962671  0.292181E-03  0.108E-01    0.39       1.0  T
   4   -111.5970787 -0.811597E-03  0.171E-02    0.41       1.0  T
   5   -111.5970935 -0.148423E-04  0.632E-03    0.41       2.2  T
   6   -111.5970943 -0.746451E-06  0.402E-03    0.40       3.4  T
   7   -111.5970951 -0.857057E-06  0.139E-03    0.40       9.9  T
   8   -111.5970952 -0.430880E-07  0.953E-04    0.40      14.4  T
   9   -111.5970952 -0.282983E-07  0.588E-04    0.40      23.4  T
     SCC iter.                  ...        0 min,  0.158 sec
     gradient                   ...        0 min,  0.263 sec
 * total energy  :  -110.2871200 Eh     change       -0.4474893E-03 Eh
   gradient norm :     0.0063214 Eh/α   predicted    -0.3261598E-03 ( -27.11%)
   displ. norm   :     0.5596947 α      lambda       -0.4978906E-03
   maximum displ.:     0.3643214 α      in ANC's #1, #4, #5, ...

........................................................................
.............................. CYCLE   27 ..............................
........................................................................
   1   -111.5955040 -0.111596E+03  0.104E-01    0.42       0.0  T
   2   -111.5947569  0.747064E-03  0.110E-01    0.44       1.0  T
   3   -111.5948173 -0.603652E-04  0.108E-01    0.41       1.0  T
   4   -111.5955891 -0.771830E-03  0.187E-02    0.42       1.0  T
   5   -111.5956071 -0.179213E-04  0.721E-03    0.42       1.9  T
   6   -111.5956083 -0.127612E-05  0.418E-03    0.42       3.3  T
   7   -111.5956092 -0.901071E-06  0.151E-03    0.42       9.1  T
   8   -111.5956093 -0.445061E-07  0.108E-03    0.42      12.8  T
   9   -111.5956093 -0.342332E-07  0.664E-04    0.42      20.7  T
  10   -111.5956093 -0.874432E-08  0.438E-04    0.42      31.4  T
     SCC iter.                  ...        0 min,  0.378 sec
     gradient                   ...        0 min,  0.401 sec
 * total energy  :  -110.2875463 Eh     change       -0.4263120E-03 Eh
   gradient norm :     0.0077811 Eh/α   predicted    -0.3269245E-03 ( -23.31%)
   displ. norm   :     0.5501209 α      lambda       -0.4642284E-03
   maximum displ.:     0.3643526 α      in ANC's #1, #4, #5, ...

........................................................................
.............................. CYCLE   28 ..............................
........................................................................
   1   -111.5954586 -0.111595E+03  0.940E-02    0.44       0.0  T
   2   -111.5948327  0.625899E-03  0.101E-01    0.46       1.0  T
   3   -111.5949810 -0.148295E-03  0.923E-02    0.43       1.0  T
   4   -111.5955347 -0.553656E-03  0.167E-02    0.44       1.0  T
   5   -111.5955496 -0.149078E-04  0.600E-03    0.44       2.3  T
   6   -111.5955506 -0.976974E-06  0.317E-03    0.44       4.3  T
   7   -111.5955510 -0.460934E-06  0.131E-03    0.44      10.5  T
   8   -111.5955511 -0.355827E-07  0.942E-04    0.44      14.6  T
   9   -111.5955511 -0.235591E-07  0.586E-04    0.44      23.5  T
     SCC iter.                  ...        0 min,  0.439 sec
     gradient                   ...        0 min,  0.361 sec
 * total energy  :  -110.2879686 Eh     change       -0.4223635E-03 Eh
   gradient norm :     0.0089789 Eh/α   predicted    -0.3023560E-03 ( -28.41%)
   displ. norm   :     0.5827811 α      lambda       -0.5301953E-03
   maximum displ.:     0.3894930 α      in ANC's #1, #4, #5, ...

........................................................................
.............................. CYCLE   29 ..............................
........................................................................
   1   -111.5967819 -0.111597E+03  0.936E-02    0.46       0.0  T
   2   -111.5962605  0.521452E-03  0.956E-02    0.48       1.0  T
   3   -111.5963186 -0.581029E-04  0.899E-02    0.45       1.0  T
   4   -111.5968477 -0.529124E-03  0.168E-02    0.46       1.0  T
   5   -111.5968637 -0.159911E-04  0.555E-03    0.46       2.5  T
   6   -111.5968647 -0.949759E-06  0.268E-03    0.46       5.1  T
   7   -111.5968649 -0.229866E-06  0.123E-03    0.46      11.2  T
   8   -111.5968649 -0.225403E-07  0.904E-04    0.46      15.2  T
   9   -111.5968649 -0.195435E-07  0.580E-04    0.46      23.7  T
     SCC iter.                  ...        0 min,  0.605 sec
     gradient                   ...        0 min,  0.642 sec
 * total energy  :  -110.2884632 Eh     change       -0.4946025E-03 Eh
   gradient norm :     0.0085013 Eh/α   predicted    -0.3551224E-03 ( -28.20%)
   displ. norm   :     0.6597209 α      lambda       -0.6261487E-03
   maximum displ.:     0.4441083 α      in ANC's #1, #4, #5, ...

........................................................................
.............................. CYCLE   30 ..............................
........................................................................
   1   -111.5983245 -0.111598E+03  0.101E-01    0.48       0.0  T
   2   -111.5979632  0.361374E-03  0.891E-02    0.49       1.0  T
   3   -111.5976051  0.358038E-03  0.104E-01    0.46       1.0  T
   4   -111.5983701 -0.764975E-03  0.171E-02    0.48       1.0  T
   5   -111.5983876 -0.174958E-04  0.546E-03    0.48       2.5  T
   6   -111.5983885 -0.900176E-06  0.256E-03    0.48       5.4  T
   7   -111.5983887 -0.150098E-06  0.126E-03    0.48      10.9  T
   8   -111.5983887 -0.256788E-07  0.880E-04    0.48      15.6  T
   9   -111.5983887 -0.151144E-07  0.585E-04    0.48      23.5  T
     SCC iter.                  ...        0 min,  0.364 sec
     gradient                   ...        0 min,  0.281 sec
 * total energy  :  -110.2890519 Eh     change       -0.5886423E-03 Eh
   gradient norm :     0.0069164 Eh/α   predicted    -0.4493293E-03 ( -23.67%)
   displ. norm   :     0.7129468 α      lambda       -0.6893027E-03
   maximum displ.:     0.4885703 α      in ANC's #1, #4, #5, ...

........................................................................
.............................. CYCLE   31 ..............................
........................................................................
   1   -111.5999588 -0.111600E+03  0.106E-01    0.49       0.0  T
   2   -111.5998246  0.134189E-03  0.747E-02    0.50       1.0  T
   3   -111.5987122  0.111247E-02  0.126E-01    0.47       1.0  T
   4   -111.5999756 -0.126341E-02  0.164E-02    0.49       1.0  T
   5   -111.5999913 -0.157317E-04  0.489E-03    0.49       2.8  T
   6   -111.5999918 -0.520160E-06  0.244E-03    0.49       5.6  T
   7   -111.5999920 -0.161501E-06  0.116E-03    0.49      11.9  T
   8   -111.5999920 -0.178450E-07  0.791E-04    0.49      17.4  T
   9   -111.5999920 -0.875374E-08  0.537E-04    0.49      25.6  T
     SCC iter.                  ...        0 min,  0.340 sec
     gradient                   ...        0 min,  0.483 sec
 * total energy  :  -110.2897002 Eh     change       -0.6482774E-03 Eh
   gradient norm :     0.0057310 Eh/α   predicted    -0.5198149E-03 ( -19.82%)
   displ. norm   :     0.7488729 α      lambda       -0.7087280E-03
   maximum displ.:     0.5184954 α      in ANC's #1, #4, #5, ...

........................................................................
.............................. CYCLE   32 ..............................
........................................................................
   1   -111.5999972 -0.111600E+03  0.112E-01    0.51       0.0  T
   2   -111.5999575  0.396998E-04  0.693E-02    0.51       1.0  T
   3   -111.5987089  0.124860E-02  0.124E-01    0.49       1.0  T
   4   -111.6000052 -0.129636E-02  0.151E-02    0.51       1.0  T
   5   -111.6000173 -0.121226E-04  0.500E-03    0.51       2.7  T
   6   -111.6000178 -0.424532E-06  0.245E-03    0.51       5.6  T
   7   -111.6000179 -0.166351E-06  0.117E-03    0.51      11.8  T
   8   -111.6000180 -0.211749E-07  0.758E-04    0.51      18.1  T
   9   -111.6000180 -0.909610E-08  0.504E-04    0.51      27.3  T
     SCC iter.                  ...        0 min,  0.458 sec
     gradient                   ...        0 min,  0.353 sec
 * total energy  :  -110.2903679 Eh     change       -0.6677663E-03 Eh
   gradient norm :     0.0063017 Eh/α   predicted    -0.5530735E-03 ( -17.18%)
   displ. norm   :     0.7325886 α      lambda       -0.7300081E-03
   maximum displ.:     0.5264271 α      in ANC's #1, #5, #4, ...

........................................................................
.............................. CYCLE   33 ..............................
........................................................................
   1   -111.6017678 -0.111602E+03  0.112E-01    0.52       0.0  T
   2   -111.6017817 -0.138943E-04  0.634E-02    0.52       1.0  T
   3   -111.6017211  0.606106E-04  0.344E-02    0.52       1.0  T
   4   -111.6017481 -0.269484E-04  0.238E-02    0.51       1.0  T
   5   -111.6017860 -0.379224E-04  0.851E-03    0.52       1.6  T
   6   -111.6017904 -0.437059E-05  0.378E-03    0.51       3.6  T
   7   -111.6017911 -0.758370E-06  0.137E-03    0.52      10.0  T
   8   -111.6017912 -0.650505E-07  0.793E-04    0.52      17.3  T
   9   -111.6017912 -0.125905E-07  0.507E-04    0.52      27.1  T
     SCC iter.                  ...        0 min,  0.530 sec
     gradient                   ...        0 min,  0.370 sec
 * total energy  :  -110.2910225 Eh     change       -0.6545147E-03 Eh
   gradient norm :     0.0077971 Eh/α   predicted    -0.5608780E-03 ( -14.31%)
   displ. norm   :     0.7533328 α      lambda       -0.7171900E-03
   maximum displ.:     0.5401057 α      in ANC's #1, #5, #4, ...

........................................................................
.............................. CYCLE   34 ..............................
........................................................................
   1   -111.5999930 -0.111600E+03  0.116E-01    0.53       0.0  T
   2   -111.6000118 -0.187931E-04  0.653E-02    0.53       1.0  T
   3   -111.5999843  0.274830E-04  0.278E-02    0.53       1.0  T
   4   -111.6000154 -0.310930E-04  0.972E-03    0.53       1.4  T
   5   -111.6000104  0.502478E-05  0.120E-02    0.53       1.1  T
   6   -111.6000202 -0.977401E-05  0.334E-03    0.53       4.1  T
   7   -111.6000206 -0.461896E-06  0.156E-03    0.53       8.8  T
   8   -111.6000207 -0.799403E-07  0.881E-04    0.53      15.6  T
   9   -111.6000207 -0.217444E-07  0.522E-04    0.53      26.3  T
     SCC iter.                  ...        0 min,  0.381 sec
     gradient                   ...        0 min,  0.307 sec
 * total energy  :  -110.2916632 Eh     change       -0.6407015E-03 Eh
   gradient norm :     0.0088553 Eh/α   predicted    -0.5620841E-03 ( -12.27%)
   displ. norm   :     0.6932605 α      lambda       -0.6303114E-03
   maximum displ.:     0.5184418 α      in ANC's #1, #5, #4, ...

........................................................................
.............................. CYCLE   35 ..............................
........................................................................
   1   -111.5999367 -0.111600E+03  0.106E-01    0.55       0.0  T
   2   -111.5999459 -0.919052E-05  0.588E-02    0.55       1.0  T
   3   -111.5998426  0.103299E-03  0.431E-02    0.55       1.0  T
   4   -111.5999080 -0.654626E-04  0.255E-02    0.54       1.0  T
   5   -111.5999569 -0.489203E-04  0.542E-03    0.55       2.5  T
   6   -111.5999576 -0.627245E-06  0.269E-03    0.54       5.1  T
   7   -111.5999578 -0.278994E-06  0.114E-03    0.55      12.1  T
   8   -111.5999579 -0.344989E-07  0.727E-04    0.55      18.9  T
   9   -111.5999579 -0.947844E-08  0.455E-04    0.55      30.2  T
     SCC iter.                  ...        0 min,  0.426 sec
     gradient                   ...        0 min,  0.329 sec
 * total energy  :  -110.2922473 Eh     change       -0.5841083E-03 Eh
   gradient norm :     0.0082660 Eh/α   predicted    -0.4666043E-03 ( -20.12%)
   displ. norm   :     0.6583699 α      lambda       -0.6080351E-03
   maximum displ.:     0.5123273 α      in ANC's #1, #5, #4, ...

........................................................................
.............................. CYCLE   36 ..............................
........................................................................
   1   -111.6019700 -0.111602E+03  0.100E-01    0.57       0.0  T
   2   -111.6019762 -0.617869E-05  0.558E-02    0.56       1.0  T
   3   -111.6018171  0.159060E-03  0.518E-02    0.57       1.0  T
   4   -111.6019473 -0.130173E-03  0.252E-02    0.56       1.0  T
   5   -111.6019933 -0.460113E-04  0.532E-03    0.56       2.6  T
   6   -111.6019937 -0.431650E-06  0.286E-03    0.56       4.8  T
   7   -111.6019941 -0.341232E-06  0.116E-03    0.56      11.8  T
   8   -111.6019941 -0.443307E-07  0.689E-04    0.56      19.9  T
   9   -111.6019941 -0.866459E-08  0.444E-04    0.56      30.9  T
     SCC iter.                  ...        0 min,  0.367 sec
     gradient                   ...        0 min,  0.204 sec
 * total energy  :  -110.2928057 Eh     change       -0.5584741E-03 Eh
   gradient norm :     0.0055874 Eh/α   predicted    -0.4357777E-03 ( -21.97%)
   displ. norm   :     0.6764712 α      lambda       -0.5799269E-03
   maximum displ.:     0.5327276 α      in ANC's #1, #5, #4, ...

........................................................................
.............................. CYCLE   37 ..............................
........................................................................
   1   -111.6016357 -0.111602E+03  0.997E-02    0.59       0.0  T
   2   -111.6016461 -0.104696E-04  0.557E-02    0.58       1.0  T
   3   -111.6016159  0.301823E-04  0.284E-02    0.58       1.0  T
   4   -111.6016443 -0.283166E-04  0.123E-02    0.58       1.1  T
   5   -111.6016511 -0.687527E-05  0.645E-03    0.58       2.1  T
   6   -111.6016535 -0.237890E-05  0.256E-03    0.58       5.4  T
   7   -111.6016538 -0.287308E-06  0.970E-04    0.58      14.2  T
   8   -111.6016538 -0.983580E-08  0.673E-04    0.58      20.4  T
     SCC iter.                  ...        0 min,  0.313 sec
     gradient                   ...        0 min,  0.281 sec
 * total energy  :  -110.2933474 Eh     change       -0.5416947E-03 Eh
   gradient norm :     0.0055758 Eh/α   predicted    -0.4226386E-03 ( -21.98%)
   displ. norm   :     0.6530896 α      lambda       -0.5618751E-03
   maximum displ.:     0.5320508 α      in ANC's #1, #5, #4, ...

........................................................................
.............................. CYCLE   38 ..............................
........................................................................
   1   -111.6037690 -0.111604E+03  0.940E-02    0.60       0.0  T
   2   -111.6037765 -0.750529E-05  0.526E-02    0.60       1.0  T
   3   -111.6037256  0.509280E-04  0.311E-02    0.60       1.0  T
   4   -111.6037671 -0.415010E-04  0.156E-02    0.59       1.0  T
   5   -111.6037830 -0.159115E-04  0.456E-03    0.60       3.0  T
   6   -111.6037835 -0.518191E-06  0.202E-03    0.60       6.8  T
   7   -111.6037836 -0.131335E-06  0.988E-04    0.60      13.9  T
   8   -111.6037836 -0.996587E-08  0.663E-04    0.60      20.7  T
     SCC iter.                  ...        0 min,  0.281 sec
     gradient                   ...        0 min,  0.413 sec
 * total energy  :  -110.2938740 Eh     change       -0.5265412E-03 Eh
   gradient norm :     0.0066561 Eh/α   predicted    -0.4007500E-03 ( -23.89%)
   displ. norm   :     0.6592177 α      lambda       -0.5744291E-03
   maximum displ.:     0.5472628 α      in ANC's #1, #5, #4, ...

........................................................................
.............................. CYCLE   39 ..............................
........................................................................
   1   -111.6039524 -0.111604E+03  0.934E-02    0.62       0.0  T
   2   -111.6039605 -0.819189E-05  0.532E-02    0.61       1.0  T
   3   -111.6039289  0.316099E-04  0.256E-02    0.62       1.0  T
   4   -111.6039549 -0.259342E-04  0.131E-02    0.61       1.1  T
   5   -111.6039654 -0.104934E-04  0.437E-03    0.61       3.1  T
   6   -111.6039660 -0.620051E-06  0.220E-03    0.61       6.2  T
   7   -111.6039662 -0.185285E-06  0.923E-04    0.61      14.9  T
   8   -111.6039662 -0.490176E-08  0.684E-04    0.61      20.1  T
     SCC iter.                  ...        0 min,  0.252 sec
     gradient                   ...        0 min,  0.223 sec
 * total energy  :  -110.2944178 Eh     change       -0.5438141E-03 Eh
   gradient norm :     0.0061968 Eh/α   predicted    -0.4120176E-03 ( -24.24%)
   displ. norm   :     0.6685883 α      lambda       -0.5944523E-03
   maximum displ.:     0.5673693 α      in ANC's #1, #5, #2, ...

........................................................................
.............................. CYCLE   40 ..............................
........................................................................
   1   -111.6053720 -0.111605E+03  0.918E-02    0.63       0.0  T
   2   -111.6053784 -0.636048E-05  0.526E-02    0.62       1.0  T
   3   -111.6053650  0.133530E-04  0.174E-02    0.63       1.0  T
   4   -111.6053802 -0.151894E-04  0.637E-03    0.62       2.2  T
   5   -111.6053798  0.449812E-06  0.564E-03    0.62       2.4  T
   6   -111.6053818 -0.203135E-05  0.205E-03    0.62       6.7  T
   7   -111.6053819 -0.147324E-06  0.109E-03    0.62      12.6  T
   8   -111.6053820 -0.188430E-07  0.754E-04    0.62      18.2  T
   9   -111.6053820 -0.109825E-07  0.513E-04    0.62      26.8  T
     SCC iter.                  ...        0 min,  0.427 sec
     gradient                   ...        0 min,  0.289 sec
 * total energy  :  -110.2949866 Eh     change       -0.5688293E-03 Eh
   gradient norm :     0.0068757 Eh/α   predicted    -0.4300764E-03 ( -24.39%)
   displ. norm   :     0.7069336 α      lambda       -0.6579778E-03
   maximum displ.:     0.6113871 α      in ANC's #1, #2, #5, ...

........................................................................
.............................. CYCLE   41 ..............................
........................................................................
   1   -111.6056957 -0.111606E+03  0.966E-02    0.63       0.0  T
   2   -111.6057011 -0.536193E-05  0.563E-02    0.63       1.0  T
   3   -111.6056250  0.760789E-04  0.332E-02    0.64       1.0  T
   4   -111.6057003 -0.752885E-04  0.111E-02    0.63       1.2  T
   5   -111.6057072 -0.688009E-05  0.367E-03    0.63       3.7  T
   6   -111.6057074 -0.255266E-06  0.195E-03    0.63       7.0  T
   7   -111.6057075 -0.778588E-07  0.109E-03    0.63      12.6  T
   8   -111.6057075 -0.214138E-07  0.768E-04    0.63      17.9  T
   9   -111.6057076 -0.101675E-07  0.525E-04    0.63      26.2  T
     SCC iter.                  ...        0 min,  0.459 sec
     gradient                   ...        0 min,  0.434 sec
 * total energy  :  -110.2956074 Eh     change       -0.6207818E-03 Eh
   gradient norm :     0.0065827 Eh/α   predicted    -0.4933863E-03 ( -20.52%)
   displ. norm   :     0.7296906 α      lambda       -0.7245755E-03
   maximum displ.:     0.6484011 α      in ANC's #1, #2, #5, ...

........................................................................
.............................. CYCLE   42 ..............................
........................................................................
   1   -111.6084816 -0.111608E+03  0.975E-02    0.64       0.0  T
   2   -111.6084913 -0.973391E-05  0.570E-02    0.64       1.0  T
   3   -111.6084778  0.135740E-04  0.185E-02    0.64       1.0  T
   4   -111.6084933 -0.155523E-04  0.638E-03    0.64       2.2  T
   5   -111.6084938 -0.504924E-06  0.510E-03    0.64       2.7  T
   6   -111.6084953 -0.148216E-05  0.210E-03    0.64       6.5  T
   7   -111.6084954 -0.113983E-06  0.996E-04    0.64      13.8  T
   8   -111.6084954 -0.130510E-07  0.697E-04    0.64      19.7  T
     SCC iter.                  ...        0 min,  0.367 sec
     gradient                   ...        0 min,  0.278 sec
 * total energy  :  -110.2962839 Eh     change       -0.6765290E-03 Eh
   gradient norm :     0.0051781 Eh/α   predicted    -0.5551617E-03 ( -17.94%)
   displ. norm   :     0.8200124 α      lambda       -0.7923968E-03
   maximum displ.:     0.7248440 α      in ANC's #1, #2, #5, ...
 * RMSD in coord.:     1.7179233 α      energy gain  -0.1107570E-01 Eh

generating ANC from model Hessian ...
Using Lindh-Hessian (1995)
 Shifting diagonal of input Hessian by    9.9339599852607974E-003
 Lowest  eigenvalues of input Hessian
    0.000000    0.000000    0.000000    0.000000    0.000000    0.000000
    0.010000    0.010118    0.010231    0.010533    0.010689    0.010925
    0.011361    0.011468    0.012231    0.014400    0.014975    0.015399
 Highest eigenvalues
    2.155516    2.182168    2.290460    2.311751    2.450400    2.619174


........................................................................
.............................. CYCLE   43 ..............................
........................................................................
   1   -111.6067551 -0.111607E+03  0.111E-01    0.64       0.0  T
   2   -111.6067658 -0.107331E-04  0.652E-02    0.64       1.0  T
   3   -111.6067226  0.432043E-04  0.282E-02    0.65       1.0  T
   4   -111.6067701 -0.475022E-04  0.822E-03    0.64       1.7  T
   5   -111.6067729 -0.280626E-05  0.500E-03    0.64       2.7  T
   6   -111.6067735 -0.637761E-06  0.334E-03    0.64       4.1  T
   7   -111.6067740 -0.457130E-06  0.141E-03    0.64       9.8  T
   8   -111.6067741 -0.468115E-07  0.965E-04    0.64      14.2  T
   9   -111.6067741 -0.175574E-07  0.682E-04    0.64      20.1  T
     SCC iter.                  ...        0 min,  0.277 sec
     gradient                   ...        0 min,  0.209 sec
 * total energy  :  -110.2970335 Eh     change       -0.7495529E-03 Eh
   gradient norm :     0.0072457 Eh/α   predicted     0.0000000E+00 (-100.00%)
   displ. norm   :     0.1078592 α      lambda       -0.2097845E-03
   maximum displ.:     0.0833863 α      in ANC's #1, #12, #6, ...

........................................................................
.............................. CYCLE   44 ..............................
........................................................................
   1   -111.6079960 -0.111608E+03  0.251E-02    0.64       0.0  T
   2   -111.6079994 -0.336318E-05  0.147E-02    0.64       1.0  T
   3   -111.6079971  0.227102E-05  0.934E-03    0.64       1.5  T
   4   -111.6079971  0.373766E-07  0.755E-03    0.64       1.8  T
   5   -111.6080009 -0.383220E-05  0.210E-03    0.64       6.5  T
   6   -111.6080011 -0.132066E-06  0.980E-04    0.64      14.0  T
   7   -111.6080011 -0.159025E-07  0.564E-04    0.64      24.4  T
     SCC iter.                  ...        0 min,  0.265 sec
     gradient                   ...        0 min,  0.274 sec
 * total energy  :  -110.2972202 Eh     change       -0.1867211E-03 Eh
   gradient norm :     0.0035987 Eh/α   predicted    -0.1061134E-03 ( -43.17%)
   displ. norm   :     0.3309398 α      lambda       -0.5208818E-03
   maximum displ.:     0.2328171 α      in ANC's #1, #12, #23, ...

........................................................................
.............................. CYCLE   45 ..............................
........................................................................
   1   -111.6094346 -0.111609E+03  0.748E-02    0.64       0.0  T
   2   -111.6094551 -0.204995E-04  0.428E-02    0.64       1.0  T
   3   -111.6094454  0.965350E-05  0.232E-02    0.64       1.0  T
   4   -111.6094549 -0.951183E-05  0.129E-02    0.63       1.1  T
   5   -111.6094638 -0.888023E-05  0.722E-03    0.64       1.9  T
   6   -111.6094658 -0.200153E-05  0.324E-03    0.64       4.2  T
   7   -111.6094660 -0.190473E-06  0.178E-03    0.64       7.7  T
   8   -111.6094660 -0.161953E-07  0.129E-03    0.64      10.6  T
   9   -111.6094660 -0.366903E-07  0.826E-04    0.64      16.6  T
  10   -111.6094661 -0.105830E-07  0.481E-04    0.64      28.6  T
     SCC iter.                  ...        0 min,  0.285 sec
     gradient                   ...        0 min,  0.350 sec
 * total energy  :  -110.2976428 Eh     change       -0.4225559E-03 Eh
   gradient norm :     0.0056333 Eh/α   predicted    -0.2889980E-03 ( -31.61%)
   displ. norm   :     0.5549064 α      lambda       -0.7343047E-03
   maximum displ.:     0.3783336 α      in ANC's #1, #23, #12, ...

........................................................................
.............................. CYCLE   46 ..............................
........................................................................
   1   -111.6073505 -0.111607E+03  0.124E-01    0.63       0.0  T
   2   -111.6073913 -0.407869E-04  0.712E-02    0.63       1.0  T
   3   -111.6072813  0.109998E-03  0.496E-02    0.62       1.0  T
   4   -111.6073844 -0.103120E-03  0.257E-02    0.63       1.0  T
   5   -111.6074203 -0.359168E-04  0.109E-02    0.63       1.3  T
   6   -111.6074245 -0.412980E-05  0.624E-03    0.63       2.2  T
   7   -111.6074257 -0.119809E-05  0.307E-03    0.63       4.5  T
   8   -111.6074258 -0.158654E-06  0.201E-03    0.63       6.8  T
   9   -111.6074259 -0.989869E-07  0.140E-03    0.63       9.8  T
  10   -111.6074260 -0.268990E-07  0.913E-04    0.63      15.0  T
  11   -111.6074260 -0.198146E-07  0.569E-04    0.63      24.1  T
     SCC iter.                  ...        0 min,  0.480 sec
     gradient                   ...        0 min,  0.285 sec
 * total energy  :  -110.2980853 Eh     change       -0.4425801E-03 Eh
   gradient norm :     0.0169805 Eh/α   predicted    -0.4802319E-03 (   8.51%)
   displ. norm   :     0.2573211 α      lambda       -0.4349292E-03
   maximum displ.:     0.2001158 α      in ANC's #1, #6, #4, ...

........................................................................
.............................. CYCLE   47 ..............................
........................................................................
   1   -111.6077231 -0.111608E+03  0.468E-02    0.62       0.0  T
   2   -111.6077287 -0.564324E-05  0.281E-02    0.62       1.0  T
   3   -111.6077097  0.190346E-04  0.226E-02    0.62       1.0  T
   4   -111.6077215 -0.117631E-04  0.148E-02    0.63       1.0  T
   5   -111.6077367 -0.152422E-04  0.334E-03    0.62       4.1  T
   6   -111.6077370 -0.239158E-06  0.227E-03    0.62       6.1  T
   7   -111.6077371 -0.137739E-06  0.120E-03    0.62      11.5  T
   8   -111.6077371 -0.230705E-07  0.836E-04    0.62      16.4  T
   9   -111.6077371 -0.135048E-07  0.564E-04    0.62      24.3  T
     SCC iter.                  ...        0 min,  0.386 sec
     gradient                   ...        0 min,  0.299 sec
 * total energy  :  -110.2984519 Eh     change       -0.3665964E-03 Eh
   gradient norm :     0.0140956 Eh/α   predicted    -0.2318713E-03 ( -36.75%)
   displ. norm   :     0.3678751 α      lambda       -0.7566133E-03
   maximum displ.:     0.3002617 α      in ANC's #1, #6, #4, ...

........................................................................
.............................. CYCLE   48 ..............................
........................................................................
   1   -111.6111201 -0.111611E+03  0.682E-02    0.62       0.0  T
   2   -111.6111445 -0.244133E-04  0.408E-02    0.62       1.0  T
   3   -111.6110743  0.702753E-04  0.382E-02    0.61       1.0  T
   4   -111.6111433 -0.690147E-04  0.188E-02    0.62       1.0  T
   5   -111.6111610 -0.177222E-04  0.759E-03    0.62       1.8  T
   6   -111.6111642 -0.325500E-05  0.251E-03    0.62       5.5  T
   7   -111.6111643 -0.760284E-07  0.184E-03    0.62       7.5  T
   8   -111.6111644 -0.709905E-07  0.106E-03    0.62      13.0  T
   9   -111.6111644 -0.163919E-07  0.758E-04    0.62      18.1  T
  10   -111.6111644 -0.110148E-07  0.485E-04    0.62      28.3  T
     SCC iter.                  ...        0 min,  0.278 sec
     gradient                   ...        0 min,  0.270 sec
 * total energy  :  -110.2989223 Eh     change       -0.4703881E-03 Eh
   gradient norm :     0.0085198 Eh/α   predicted    -0.4295049E-03 (  -8.69%)
   displ. norm   :     0.5626186 α      lambda       -0.6955910E-03
   maximum displ.:     0.4243934 α      in ANC's #1, #23, #6, ...

........................................................................
.............................. CYCLE   49 ..............................
........................................................................
   1   -111.6089430 -0.111609E+03  0.983E-02    0.61       0.0  T
   2   -111.6089628 -0.198212E-04  0.588E-02    0.62       1.0  T
   3   -111.6087665  0.196273E-03  0.575E-02    0.60       1.0  T
   4   -111.6089667 -0.200183E-03  0.211E-02    0.62       1.0  T
   5   -111.6089924 -0.256820E-04  0.766E-03    0.62       1.8  T
   6   -111.6089937 -0.130472E-05  0.458E-03    0.62       3.0  T
   7   -111.6089938 -0.156299E-06  0.289E-03    0.62       4.8  T
   8   -111.6089940 -0.165084E-06  0.200E-03    0.62       6.9  T
   9   -111.6089940 -0.478044E-07  0.152E-03    0.62       9.0  T
  10   -111.6089941 -0.661359E-07  0.621E-04    0.62      22.1  T
  11   -111.6089941 -0.104383E-07  0.330E-04    0.62      41.7  T
     SCC iter.                  ...        0 min,  0.163 sec
     gradient                   ...        0 min,  0.098 sec
 * total energy  :  -110.2994877 Eh     change       -0.5653808E-03 Eh
   gradient norm :     0.0094820 Eh/α   predicted    -0.4578876E-03 ( -19.01%)
   displ. norm   :     0.5174908 α      lambda       -0.5221899E-03
   maximum displ.:     0.4123804 α      in ANC's #1, #4, #6, ...

........................................................................
.............................. CYCLE   50 ..............................
........................................................................
   1   -111.6082119 -0.111608E+03  0.789E-02    0.62       0.0  T
   2   -111.6082259 -0.140246E-04  0.463E-02    0.62       1.0  T
   3   -111.6082094  0.164780E-04  0.216E-02    0.61       1.0  T
   4   -111.6082270 -0.175310E-04  0.106E-02    0.62       1.3  T
   5   -111.6082312 -0.424983E-05  0.720E-03    0.62       1.9  T
   6   -111.6082336 -0.241511E-05  0.340E-03    0.62       4.0  T
   7   -111.6082338 -0.142204E-06  0.224E-03    0.62       6.1  T
   8   -111.6082339 -0.937840E-07  0.158E-03    0.62       8.7  T
   9   -111.6082339 -0.304161E-07  0.118E-03    0.62      11.6  T
  10   -111.6082339 -0.406530E-07  0.491E-04    0.62      28.0  T
  11   -111.6082339 -0.213923E-08  0.299E-04    0.62      46.0  T
     SCC iter.                  ...        0 min,  0.245 sec
     gradient                   ...        0 min,  0.412 sec
 * total energy  :  -110.2999043 Eh     change       -0.4166032E-03 Eh
   gradient norm :     0.0154201 Eh/α   predicted    -0.3310191E-03 ( -20.54%)
   displ. norm   :     0.4172665 α      lambda       -0.6498101E-03
   maximum displ.:     0.3389817 α      in ANC's #1, #4, #8, ...

........................................................................
.............................. CYCLE   51 ..............................
........................................................................
   1   -111.6111886 -0.111611E+03  0.688E-02    0.63       0.0  T
   2   -111.6111918 -0.320612E-05  0.408E-02    0.62       1.0  T
   3   -111.6110750  0.116832E-03  0.437E-02    0.64       1.0  T
   4   -111.6112018 -0.126833E-03  0.113E-02    0.62       1.2  T
   5   -111.6112077 -0.585924E-05  0.428E-03    0.63       3.2  T
   6   -111.6112083 -0.584463E-06  0.230E-03    0.63       6.0  T
   7   -111.6112084 -0.919435E-07  0.147E-03    0.63       9.3  T
   8   -111.6112084 -0.465601E-07  0.106E-03    0.63      13.0  T
   9   -111.6112084 -0.163759E-07  0.707E-04    0.63      19.4  T
  10   -111.6112085 -0.147310E-07  0.409E-04    0.63      33.5  T
     SCC iter.                  ...        0 min,  0.356 sec
     gradient                   ...        0 min,  0.266 sec
 * total energy  :  -110.3004278 Eh     change       -0.5234945E-03 Eh
   gradient norm :     0.0082348 Eh/α   predicted    -0.3814803E-03 ( -27.13%)
   displ. norm   :     0.5286090 α      lambda       -0.5516222E-03
   maximum displ.:     0.4316923 α      in ANC's #1, #4, #8, ...

........................................................................
.............................. CYCLE   52 ..............................
........................................................................
   1   -111.6117967 -0.111612E+03  0.816E-02    0.64       0.0  T
   2   -111.6117914  0.539247E-05  0.492E-02    0.63       1.0  T
   3   -111.6115978  0.193512E-03  0.551E-02    0.65       1.0  T
   4   -111.6118105 -0.212691E-03  0.102E-02    0.63       1.3  T
   5   -111.6118153 -0.476835E-05  0.410E-03    0.64       3.4  T
   6   -111.6118156 -0.327611E-06  0.225E-03    0.64       6.1  T
   7   -111.6118157 -0.703575E-07  0.156E-03    0.64       8.8  T
   8   -111.6118157 -0.415104E-07  0.111E-03    0.64      12.3  T
   9   -111.6118158 -0.204491E-07  0.753E-04    0.64      18.2  T
  10   -111.6118158 -0.123468E-07  0.481E-04    0.64      28.6  T
     SCC iter.                  ...        0 min,  0.461 sec
     gradient                   ...        0 min,  0.307 sec
 * total energy  :  -110.3009090 Eh     change       -0.4811872E-03 Eh
   gradient norm :     0.0074085 Eh/α   predicted    -0.3528831E-03 ( -26.66%)
   displ. norm   :     0.5613238 α      lambda       -0.5132479E-03
   maximum displ.:     0.4605488 α      in ANC's #1, #4, #8, ...

........................................................................
.............................. CYCLE   53 ..............................
........................................................................
   1   -111.6112829 -0.111611E+03  0.865E-02    0.65       0.0  T
   2   -111.6112812  0.166383E-05  0.514E-02    0.64       1.0  T
   3   -111.6111081  0.173099E-03  0.530E-02    0.66       1.0  T
   4   -111.6112950 -0.186825E-03  0.125E-02    0.64       1.1  T
   5   -111.6113033 -0.831160E-05  0.391E-03    0.64       3.5  T
   6   -111.6113035 -0.171896E-06  0.220E-03    0.64       6.2  T
   7   -111.6113036 -0.108095E-06  0.131E-03    0.65      10.5  T
   8   -111.6113036 -0.186818E-07  0.945E-04    0.65      14.5  T
   9   -111.6113036 -0.167312E-07  0.633E-04    0.65      21.7  T
     SCC iter.                  ...        0 min,  0.381 sec
[...]
          :  Broyden damping             0.4000000          :
          ...................................................

 iter      E             dE          RMSdq      gap      omega  full diag
   1   -111.6246217 -0.111625E+03  0.817E-03    0.74       0.0  T
   2   -111.6246217 -0.147564E-07  0.480E-03    0.74       2.9  T
   3   -111.6246214  0.296431E-06  0.212E-03    0.74       6.5  T
   4   -111.6246217 -0.319220E-06  0.379E-04    0.74      36.2  T
   5   -111.6246217 -0.485701E-08  0.190E-04    0.74      72.2  T

   *** convergence criteria satisfied after 5 iterations ***

         #    Occupation            Energy/Eh            Energy/eV
      -------------------------------------------------------------
         1        2.0000           -1.0747738             -29.2461
       ...           ...                  ...                  ...
        90        2.0000           -0.4111621             -11.1883
        91        2.0000           -0.4088924             -11.1265
        92        2.0000           -0.4040986             -10.9961
        93        2.0000           -0.3996695             -10.8756
        94        2.0000           -0.3915081             -10.6535
        95        2.0000           -0.3862969             -10.5117
        96        2.0000           -0.3614570              -9.8357 (HOMO)
        97        0.0000           -0.3343868              -9.0991 (LUMO)
        98                         -0.3142016              -8.5499
        99                         -0.2800949              -7.6218
       100                         -0.2564447              -6.9782
       101                         -0.2542275              -6.9179
       ...                                ...                  ...
       182                          0.7126636              19.3926
      -------------------------------------------------------------
                  HL-Gap            0.0270703 Eh            0.7366 eV
             Fermi-level           -0.3479219 Eh           -9.4674 eV

 SCC (total)                   0 d,  0 h,  0 min,  0.238 sec
 SCC setup                      ...        0 min,  0.002 sec (  0.755%)
 Dispersion                     ...        0 min,  0.003 sec (  1.304%)
 classical contributions        ...        0 min,  0.001 sec (  0.270%)
 integral evaluation            ...        0 min,  0.043 sec ( 17.892%)
 iterations                     ...        0 min,  0.081 sec ( 34.082%)
 molecular gradient             ...        0 min,  0.108 sec ( 45.194%)
 printout                       ...        0 min,  0.001 sec (  0.477%)

         :::::::::::::::::::::::::::::::::::::::::::::::::::::
         ::                     SUMMARY                     ::
         :::::::::::::::::::::::::::::::::::::::::::::::::::::
         :: total energy            -110.314945727115 Eh    ::
         :: gradient norm              0.000339493525 Eh/a0 ::
         :: HOMO-LUMO gap              0.736619143380 eV    ::
         ::.................................................::
         :: SCC energy              -111.624621725913 Eh    ::
         :: -> isotropic ES            0.147948630447 Eh    ::
         :: -> anisotropic ES          0.009708564018 Eh    ::
         :: -> anisotropic XC          0.025182499543 Eh    ::
         :: -> dispersion             -0.071779523470 Eh    ::
         :: repulsion energy           1.310214103478 Eh    ::
         :: add. restraining           0.000000000000 Eh    ::
         :: total charge              -0.000000000000 e     ::
         :::::::::::::::::::::::::::::::::::::::::::::::::::::

           -------------------------------------------------
          |                Property Printout                |
           -------------------------------------------------

    * Orbital Energies and Occupations

         #    Occupation            Energy/Eh            Energy/eV
      -------------------------------------------------------------
         1        2.0000           -1.0747738             -29.2461
       ...           ...                  ...                  ...
        84        2.0000           -0.4432637             -12.0618
        85        2.0000           -0.4397896             -11.9673
        86        2.0000           -0.4342883             -11.8176
        87        2.0000           -0.4294889             -11.6870
        88        2.0000           -0.4199922             -11.4286
        89        2.0000           -0.4175658             -11.3625
        90        2.0000           -0.4111621             -11.1883
        91        2.0000           -0.4088924             -11.1265
        92        2.0000           -0.4040986             -10.9961
        93        2.0000           -0.3996695             -10.8756
        94        2.0000           -0.3915081             -10.6535
        95        2.0000           -0.3862969             -10.5117
        96        2.0000           -0.3614570              -9.8357 (HOMO)
        97        0.0000           -0.3343868              -9.0991 (LUMO)
        98                         -0.3142016              -8.5499
        99                         -0.2800949              -7.6218
       100                         -0.2564447              -6.9782
       101                         -0.2542275              -6.9179
       102                         -0.2463592              -6.7038
       103                         -0.2433647              -6.6223
       104                         -0.2354419              -6.4067
       105                         -0.2245912              -6.1114
       106                         -0.2115702              -5.7571
       107                         -0.1832128              -4.9855
       ...                                ...                  ...
       182                          0.7126636              19.3926
      -------------------------------------------------------------
                  HL-Gap            0.0270703 Eh            0.7366 eV
             Fermi-level           -0.3479219 Eh           -9.4674 eV

     #   Z          covCN         q      C6AA      α(0)
     1   6 C        3.651     0.028    20.412     6.489
     2   8 O        1.705    -0.223    17.704     5.681
     3   6 C        3.003     0.144    24.851     8.177
     4   6 C        3.070    -0.088    30.137     9.001
     5   6 C        2.989     0.020    27.554     8.611
     6   6 C        2.932     0.058    26.709     8.476
     7   6 C        2.857    -0.019    28.478     8.747
     8   7 N        2.862     0.043    20.483     6.722
     9   6 C        3.032    -0.022    28.513     8.759
    10   6 C        3.053    -0.051    29.217     8.865
    11   6 C        3.038    -0.046    29.096     8.847
    12   6 C        3.108    -0.007    28.039     8.676
    13   6 C        2.755     0.271    22.422     7.754
    14   8 O        0.859    -0.422    22.129     6.307
    15   7 N        2.708    -0.149    24.221     7.309
    16  16 S        2.271    -0.036   142.537    20.094
    17   6 C        2.957     0.063    26.577     8.456
    18   7 N        1.949    -0.090    23.739     7.225
    19   7 N        1.959    -0.134    24.665     7.365
    20   6 C        2.930     0.086    26.082     8.375
    21   6 C        2.922    -0.032    28.796     8.800
    22   6 C        2.924    -0.030    28.749     8.793
    23   6 C        2.974     0.026    27.424     8.590
    24   6 C        2.999     0.004    27.931     8.669
    25   6 C        2.964    -0.055    29.372     8.890
    26   6 C        2.883     0.071    26.409     8.425
    27  17 Cl       0.973    -0.128   103.157    15.539
    28   6 C        2.886     0.126    25.246     8.237
    29   8 O        1.660    -0.351    19.923     6.026
    30   6 C        2.884     0.106    25.645     8.302
    31   8 O        1.659    -0.383    20.513     6.114
    32   6 C        2.886     0.051    26.844     8.494
    33  17 Cl       0.958    -0.168   104.406    15.632
    34   6 C        2.914     0.003    27.953     8.670
    35   7 N        2.761     0.553    13.446     5.446
    36   8 O        0.930    -0.385    21.342     6.196
    37   8 O        0.929    -0.390    21.451     6.211
    38   6 C        2.922    -0.035    28.863     8.810
    39   1 H        0.924     0.053     2.286     2.364
    40   1 H        0.925     0.080     1.980     2.201
    41   1 H        0.924     0.053     2.282     2.362
    42   1 H        0.926     0.050     2.316     2.380
    43   1 H        0.926     0.060     2.195     2.317
    44   1 H        0.926     0.043     2.412     2.429
    45   1 H        0.926     0.046     2.373     2.409
    46   1 H        0.926     0.059     2.211     2.325
    47   1 H        0.860     0.202     1.094     1.639
    48   1 H        0.926     0.066     2.131     2.283
    49   1 H        0.926     0.059     2.216     2.328
    50   1 H        0.926     0.080     1.981     2.201
    51   1 H        0.805     0.333     0.629     1.246
    52   1 H        0.805     0.327     0.646     1.262
    53   1 H        0.926     0.079     1.991     2.207

 Mol. C6AA /au·bohr⁶  :      51653.604652
 Mol. C8AA /au·bohr⁸  :    1405186.813892
 Mol. α(0) /au        :        357.730509


Wiberg/Mayer (AO) data.
largest (>0.10) Wiberg bond orders for each atom

 ---------------------------------------------------------------------------
     #   Z sym  total        # sym  WBO       # sym  WBO       # sym  WBO
 ---------------------------------------------------------------------------
     1   6 C    3.931 --    40 H    0.978    41 H    0.976    39 H    0.976
                             2 O    0.972
     2   8 O    2.297 --     3 C    1.120     1 C    0.972
     3   6 C    3.918 --     4 C    1.320    17 C    1.273     2 O    1.120
     4   6 C    3.962 --     5 C    1.432     3 C    1.320    42 H    0.959
     5   6 C    3.932 --     4 C    1.432    16 S    1.181     6 C    1.137
     6   6 C    3.970 --     7 C    1.524    15 N    1.140     5 C    1.137
     7   6 C    3.918 --     6 C    1.524     8 N    1.158    43 H    0.961
     8   7 N    3.693 --     9 C    1.217     7 C    1.158    12 C    1.112
     9   6 C    3.930 --    10 C    1.516     8 N    1.217    44 H    0.969
                            12 C    0.108
    10   6 C    3.964 --     9 C    1.516    11 C    1.349    45 H    0.973
    11   6 C    3.959 --    12 C    1.467    10 C    1.349    46 H    0.972
    12   6 C    3.933 --    11 C    1.467     8 N    1.112    13 C    1.082
                             9 C    0.108
    13   6 C    3.954 --    14 O    1.672    15 N    1.113    12 C    1.082
    14   8 O    2.015 --    13 C    1.672    15 N    0.155
    15   7 N    3.509 --     6 C    1.140    13 C    1.113    47 H    0.919
                            14 O    0.155
    16  16 S    2.596 --     5 C    1.181    17 C    0.996
    17   6 C    3.929 --    18 N    1.398     3 C    1.273    16 S    0.996
    18   7 N    3.174 --    19 N    1.513    17 C    1.398
    19   7 N    3.111 --    18 N    1.513    20 C    1.205
    20   6 C    3.975 --    38 C    1.306    21 C    1.299    19 N    1.205
    21   6 C    3.957 --    22 C    1.492    20 C    1.299    48 H    0.966
    22   6 C    3.986 --    21 C    1.492    23 C    1.363    49 H    0.966
    23   6 C    3.953 --    22 C    1.363    34 C    1.325    24 C    1.042
    24   6 C    3.984 --    25 C    1.385    32 C    1.342    23 C    1.042
    25   6 C    3.976 --    26 C    1.401    24 C    1.385    50 H    0.962
    26   6 C    3.925 --    25 C    1.401    28 C    1.337    27 Cl   0.997
    27  17 Cl   1.139 --    26 C    0.997
    28   6 C    3.947 --    26 C    1.337    30 C    1.284    29 O    1.112
    29   8 O    2.159 --    28 C    1.112    51 H    0.865
    30   6 C    3.947 --    32 C    1.365    28 C    1.284    31 O    1.083
    31   8 O    2.126 --    30 C    1.083    52 H    0.859
    32   6 C    3.900 --    30 C    1.365    24 C    1.342    33 Cl   0.962
    33  17 Cl   1.124 --    32 C    0.962
    34   6 C    3.957 --    38 C    1.420    23 C    1.325    35 N    0.953
    35   7 N    3.912 --    36 O    1.456    37 O    1.454    34 C    0.953
    36   8 O    1.935 --    35 N    1.456    37 O    0.361
    37   8 O    1.935 --    35 N    1.454    36 O    0.361
    38   6 C    3.964 --    34 C    1.420    20 C    1.306    53 H    0.959
    39   1 H    0.995 --     1 C    0.976
    40   1 H    0.993 --     1 C    0.978
    41   1 H    0.995 --     1 C    0.976
    42   1 H    0.997 --     4 C    0.959
    43   1 H    0.996 --     7 C    0.961
    44   1 H    0.998 --     9 C    0.969
    45   1 H    0.997 --    10 C    0.973
    46   1 H    0.996 --    11 C    0.972
    47   1 H    0.959 --    15 N    0.919
    48   1 H    0.995 --    21 C    0.966
    49   1 H    0.995 --    22 C    0.966
    50   1 H    0.994 --    25 C    0.962
    51   1 H    0.889 --    29 O    0.865
    52   1 H    0.893 --    31 O    0.859
    53   1 H    0.993 --    38 C    0.959
 ---------------------------------------------------------------------------

Topologies differ in total number of bonds
Writing topology from bond orders to xtbtopo.mol

molecular dipole:
                 x           y           z       tot (Debye)
 q only:        1.731      -2.450      -1.258
   full:        1.581      -3.535      -1.300      10.382
molecular quadrupole (traceless):
                xx          xy          yy          xz          yz          zz
 q only:        0.617     -34.655       4.251      20.618      -4.897      -4.869
  q+dip:       -2.309     -34.125       4.116      22.724      -6.314      -1.807
   full:       -5.427     -33.399       3.430      23.041      -4.014       1.997

           -------------------------------------------------
          |                Geometry Summary                 |
           -------------------------------------------------

      molecular mass/u    :      572.3773810
   center of mass at/Å    :       -0.8685084       0.5138818      -0.1264690
  moments of inertia/u·Å² :        0.2658245E+04   0.1956094E+05   0.2127614E+05
rotational constants/cm⁻¹ :        0.6341641E-02   0.8618009E-03   0.7923255E-03

 * 52 selected distances

     #   Z          #   Z                                           value/Å
     1   6 C        2   8 O                                       1.4111990
     2   8 O        3   6 C                                       1.3373663
     3   6 C        4   6 C                                       1.3994336
     4   6 C        5   6 C                                       1.3833156
     6   6 C        7   6 C                                       1.3629374
     7   6 C        8   7 N                                       1.3654048
     8   7 N        9   6 C                                       1.3551587
     9   6 C       10   6 C                                       1.3737996
    10   6 C       11   6 C                                       1.4037561
     8   7 N       12   6 C                                       1.3850283
    11   6 C       12   6 C                                       1.3795144
    13   6 C       14   8 O                                       1.2118958
     6   6 C       15   7 N                                       1.3786997
    13   6 C       15   7 N                                       1.3871521
     5   6 C       16  16 S                                       1.7289199
     3   6 C       17   6 C                                       1.4042231
    17   6 C       18   7 N                                       1.3090818
    18   7 N       19   7 N                                       1.2745904
    19   7 N       20   6 C                                       1.3594883
    20   6 C       21   6 C                                       1.4046059
    21   6 C       22   6 C                                       1.3752793
    22   6 C       23   6 C                                       1.3973196
    24   6 C       25   6 C                                       1.3896534
    25   6 C       26   6 C                                       1.3834837
    26   6 C       27  17 Cl                                      1.7186702
    26   6 C       28   6 C                                       1.3921868
    28   6 C       29   8 O                                       1.3474906
    28   6 C       30   6 C                                       1.4030025
    30   6 C       31   8 O                                       1.3595543
    24   6 C       32   6 C                                       1.3943847
    30   6 C       32   6 C                                       1.3869326
    32   6 C       33  17 Cl                                      1.7442293 (max)
    23   6 C       34   6 C                                       1.4004761
    35   7 N       36   8 O                                       1.2119574
    35   7 N       37   8 O                                       1.2125889
    20   6 C       38   6 C                                       1.4023170
    34   6 C       38   6 C                                       1.3816549
     1   6 C       39   1 H                                       1.0941921
     1   6 C       40   1 H                                       1.0881389
     1   6 C       41   1 H                                       1.0939895
     4   6 C       42   1 H                                       1.0737605
     7   6 C       43   1 H                                       1.0755142
     9   6 C       44   1 H                                       1.0723263
    10   6 C       45   1 H                                       1.0716394
    11   6 C       46   1 H                                       1.0705827
    15   7 N       47   1 H                                       1.0128313
    21   6 C       48   1 H                                       1.0785206
    22   6 C       49   1 H                                       1.0792338
    25   6 C       50   1 H                                       1.0776183
    29   8 O       51   1 H                                       0.9682684 (min)
    31   8 O       52   1 H                                       0.9691735
    38   6 C       53   1 H                                       1.0800811

 * 10 distinct bonds (by element types)

   Z      Z             #   av. dist./Å        max./Å        min./Å
   1 H    6 C          12     1.0796331     1.0941921     1.0705827
   6 C    6 C          19     1.3904356     1.4046059     1.3629374
   1 H    7 N           1     1.0128313     1.0128313     1.0128313
   6 C    7 N           7     1.3628591     1.3871521     1.3090818
   7 N    7 N           1     1.2745904     1.2745904     1.2745904
   1 H    8 O           2     0.9687210     0.9691735     0.9682684
   6 C    8 O           5     1.3335012     1.4111990     1.2118958
   7 N    8 O           2     1.2122732     1.2125889     1.2119574
   6 C   16 S           1     1.7289199     1.7289199     1.7289199
   6 C   17 Cl          2     1.7314498     1.7442293     1.7186702


optimized geometry written to: xtbopt.xyz


           -------------------------------------------------
          | TOTAL ENERGY             -110.314945727115 Eh   |
          | GRADIENT NORM               0.000339493525 Eh/α |
          | HOMO-LUMO GAP               0.736619143380 eV   |
           -------------------------------------------------

------------------------------------------------------------------------
 * finished run on 2024/05/30 at 17:45:01.355     
------------------------------------------------------------------------
 total:
 * wall-time:     0 d,  0 h,  1 min, 49.182 sec
 *  cpu-time:     0 d,  0 h,  0 min, 48.736 sec
 * ratio c/w:     0.446 speedup
 SCF:
 * wall-time:     0 d,  0 h,  0 min,  1.690 sec
 *  cpu-time:     0 d,  0 h,  0 min,  0.285 sec
 * ratio c/w:     0.169 speedup
 ANC optimizer:
 * wall-time:     0 d,  0 h,  1 min, 47.383 sec
 *  cpu-time:     0 d,  0 h,  0 min, 48.397 sec
 * ratio c/w:     0.451 speedup

